,Unnamed: 0,Unnamed: 0.1,Chemical formula,A,B,In literature,Valence A,Valence B,Radius A [ang],Radius B [ang],Lowest distortion,Formation energy [eV/atom],Stability [eV/atom],Magnetic moment [mu_B],Volume per atom [A^3/atom],Band gap [eV],a [ang],b [ang],c [ang],alpha [deg],beta [deg],gamma [deg],Vacancy energy [eV/O atom],Octahedral Factor,Tolerance Factor,A Ionization Energy,B Ionization Energy,A Electronegativity,B Electronegativity,Goldschmidt Tolerance Factor
2083,2083,2083,KNpO3,K,Np,0,element not in BV,element not in BV,1.64,0.86,orthorhombic,-2.884,-0.142,0.4,15.98,1.897,6.072,6.101,8.627,90,90,90,1.454,0.637037037,0.9566738804000001,4.341,6.19,0.82,1.36,0.9511524844
2085,2085,2085,KPaO3,K,Pa,1,element not in BV,element not in BV,1.64,0.91,cubic,-2.947,-0.567,0,16.978,4.236,4.395,4.395,4.395,90,90,90,6.314,0.6740740741,0.9355085290999999,4.341,5.89,0.82,1.5,0.9305647683
2091,2091,2091,KPuO3,K,Pu,0,element not in BV,element not in BV,1.64,0.83,orthorhombic,-2.652,-0.1,0.6,15.942,1.203,6.06,6.101,8.624,90,90,90,1.309,0.6148148148,0.9698391173,4.341,6.06,0.82,1.28,0.9639482578
2092,2092,2092,KRbO3,K,Rb,0,not balanced,not balanced,1.64,1.52,orthorhombic,-1.044,0.102,-,18.489,2.246,6.635,7.351,7.581,90,90,90,-2.794,1.1259259259,0.7366722215000001,4.341,4.177,0.82,0.82,0.736165964
2096,2096,2096,KSbO3,K,Sb,0,1,5,1.64,0.6,orthorhombic,-1.742,0.151,-,12.735,0.275,5.641,5.649,7.992,90,90,90,2.508,0.44444444439999997,1.0842303978,4.341,8.641,0.82,2.05,1.0748023074
2102,2102,2102,KTaO3,K,Ta,1,1,5,1.64,0.64,rhombohedral,-2.92,-0.38,0,12.838,2.324,5.663,5.663,5.663,60,60,60,6.626,0.47407407409999996,1.062436822,4.341,7.89,0.82,1.5,1.0537277524
2110,2110,2110,KUO3,K,U,1,not balanced,not balanced,1.64,0.85,orthorhombic,-3.14,-0.065,0.2,16.302,3.197,6.12,6.144,8.671,90,90,90,-11.265,0.6296296296,0.9610223981,4.341,6.05,0.82,1.38,0.9553798287999999
2111,2111,2111,KVO3,K,V,0,1,5,1.64,0.54,tetragonal,-2.271,0.099,0,12.542,0.284,3.685,3.685,4.618,90,90,90,2.017,0.4,1.1186504104000001,4.341,6.74,0.82,1.63,1.1080436159
2117,2117,2117,LaAcO3,La,Ac,0,element not in BV,element not in BV,1.36,1.12,cubic,-2.568,1.078,-0.002,20.589,0.273,4.687,4.687,4.687,90,90,90,2.449,0.8296296296,0.775813513,5.58,5.17,1.1,1.1,0.7744502842000001
2119,2119,2119,LaAlO3,La,Al,1,3,3,1.36,0.54,rhombohedral,-3.561,-0.072,0,10.913,4.122,5.359,5.359,5.359,60.1,60.1,60.1,-,0.4,1.0138938503000001,5.58,5.986000000000001,1.1,1.61,1.0059869670000001
2122,2122,2122,LaBO3,La,B,0,not balanced,not balanced,1.36,0.27,cubic,-2.441,0.916,0,9.267,2.138,3.592,3.592,3.592,90,90,90,4.68,0.2,1.1828761587,5.58,8.298,1.1,2.04,1.1686315665
2123,2123,2123,LaBaO3,La,Ba,0,not balanced,not balanced,1.36,1.35,orthorhombic,-2.787,0.248,0.2,20.096,0.52,6.66,6.722,8.977,90,90,90,-2.741,1.0,0.7097256952,5.58,5.212000000000001,1.1,0.89,0.7096780786
2128,2128,2128,LaCeO3,La,Ce,0,3,3,1.36,1.01,cubic,-2.7,0.916,0,18.942,0.687,4.558,4.558,4.558,90,90,90,3.087,0.7481481481000001,0.8119743123000001,5.58,5.54,1.1,1.12,0.8097986373999999
2130,2130,2130,LaCrO3,La,Cr,1,3,3,1.36,0.62,orthorhombic,-3.168,-0.071,0.6,12.024,2.07,5.506,5.586,7.819,90,90,90,4.845,0.4592592593,0.9727204959,5.58,6.766,1.1,1.66,0.966145899
2133,2133,2133,LaDyO3,La,Dy,0,3,3,1.36,0.91,cubic,-3.253,0.529,0,15.915,1.85,4.301,4.301,4.301,90,90,90,4.719,0.6740740741,0.8479023792,5.58,5.94,1.1,1.22,0.8448548554
2134,2134,2134,LaErO3,La,Er,1,3,3,1.36,0.89,orthorhombic,-3.776,0.028,0,14.809,4.586,5.832,6.04,8.409,90,90,90,4.912,0.6592592593,0.8554729362000001,5.58,6.101,1.1,1.24,0.8522335005
2136,2136,2136,LaFeO3,La,Fe,1,3,3,1.36,0.65,orthorhombic,-2.755,-0.035,1,12.186,1.092,5.52,5.621,7.855,90,90,90,4.037,0.4814814815,0.9581296884999999,5.58,7.87,1.1,1.83,0.9520071786
2137,2137,2137,LaGaO3,La,Ga,1,3,3,1.36,0.62,orthorhombic,-2.935,-0.028,0,11.923,3.829,5.512,5.536,7.815,90,90,90,4.934,0.4592592593,0.9727204959,5.58,5.999,1.1,1.81,0.966145899
2138,2138,2138,LaGdO3,La,Gd,0,3,3,1.36,0.94,cubic,-3.149,0.604,0,16.472,1.561,4.351,4.351,4.351,90,90,90,3.005,0.6962962963,0.8367944878,5.58,6.15,1.1,1.2,0.8340233829000001
2142,2142,2142,LaHoO3,La,Ho,1,3,3,1.36,0.9,orthorhombic,-3.759,0.034,0,14.973,4.546,5.849,6.063,8.445,90,90,90,4.805,0.6666666667,0.8516708342,5.58,6.018,1.1,1.23,0.8485281374
2143,2143,2143,LaInO3,La,In,1,3,3,1.36,0.8,orthorhombic,-2.773,0.006,0,14.094,3.131,5.721,5.972,8.251,90,90,90,3.397,0.5925925926,0.8912834312000001,5.58,5.7860000000000005,1.1,1.78,0.8870975981999999
2144,2144,2144,LaIrO3,La,Ir,0,3,3,1.36,0.68,orthorhombic,-2.255,0.085,0,12.737,0.809,5.466,5.894,7.908,90,90,90,0.504,0.5037037037,0.9439701365000001,5.58,9.1,1.1,2.2,0.9382763058
2146,2146,2146,La2O3,La,La,0,3,3,1.36,1.03,cubic,-2.825,0.888,0,19.361,0.595,4.592,4.592,4.592,90,90,90,3.112,0.762962963,0.8051509987000001,5.58,5.58,1.1,1.1,0.803133628
2147,2147,2147,LaLiO3,La,Li,0,not balanced,not balanced,1.36,0.76,orthorhombic,-2.263,0.275,0.4,11.446,0.349,5.296,5.689,7.598,90,90,90,-0.623,0.5629629629999999,0.9081797995,5.58,5.392,1.1,0.98,0.9035253315
2148,2148,2148,LaLuO3,La,Lu,1,3,3,1.36,0.86,rhombohedral,-3.782,0.055,0,14.353,4.557,5.841,5.841,5.841,60.8,60.8,60.8,5.238,0.637037037,0.867085691,5.58,5.4259,1.1,1.27,0.8635463345000001
2154,2154,2154,LaNdO3,La,Nd,0,3,3,1.36,0.98,cubic,-2.871,0.796,0,17.976,1.024,4.479,4.479,4.479,90,90,90,3.701,0.7259259259,0.8224289172,5.58,5.53,1.1,1.14,0.8200061832
2162,2162,2162,LaPrO3,La,Pr,0,3,3,1.36,0.99,cubic,-2.792,0.852,0,18.427,0.859,4.517,4.517,4.517,90,90,90,3.411,0.7333333333,0.8189142637000001,5.58,5.46,1.1,1.13,0.816575195
2165,2165,2165,LaRbO3,La,Rb,0,not balanced,not balanced,1.36,1.52,orthorhombic,-2.186,0.239,0,19.456,1.452,6.524,6.582,9.063,90,90,90,-2.592,1.1259259259,0.6676861941,5.58,4.177,1.1,0.82,0.6683612041
2167,2167,2167,LaRhO3,La,Rh,1,3,3,1.36,0.67,orthorhombic,-2.386,-0.062,0,12.605,0.674,5.503,5.806,7.89,90,90,90,1.14,0.49629629630000005,0.9486432559,5.58,7.46,1.1,2.28,0.9428090416
2170,2170,2170,LaScO3,La,Sc,1,3,3,1.36,0.75,orthorhombic,-3.789,-0.029,0,13.241,4.099,5.653,5.799,8.078,90,90,90,5.579,0.5555555556,0.9125044652,5.58,6.54,1.1,1.36,0.9077277748999999
2172,2172,2172,LaSmO3,La,Sm,0,3,3,1.36,0.96,cubic,-3.007,0.7,0,17.209,1.406,4.415,4.415,4.415,90,90,90,-,0.7111111111,0.8295495139,5.58,5.64,1.1,1.17,0.8269553881999999
2181,2181,2181,LaTlO3,La,Tl,0,3,3,1.36,0.89,orthorhombic,-2.287,0.038,0,15.167,1.302,5.817,6.164,8.46,90,90,90,1.289,0.6592592593,0.8554729362000001,5.58,6.108,1.1,1.62,0.8522335005
2182,2182,2182,LaTmO3,La,Tm,1,3,3,1.36,0.88,orthorhombic,-3.8,0.022,0,14.634,4.59,5.814,6.017,8.367,90,90,90,5.056,0.6518518519,0.8593091377,5.58,6.184,1.1,1.25,0.8559713667000001
2184,2184,2184,LaVO3,La,V,1,3,3,1.36,0.64,orthorhombic,-3.248,-0.077,0.4,12.379,1.248,5.537,5.689,7.859,90,90,90,4.609,0.47407407409999996,0.9629444106,5.58,6.74,1.1,1.63,0.9566738804000001
2186,2186,2186,LaYO3,La,Y,0,3,3,1.36,0.9,cubic,-3.229,0.531,0,15.904,1.912,4.3,4.3,4.3,90,90,90,4.641,0.6666666667,0.8516708342,5.58,6.38,1.1,1.22,0.8485281374
2190,2190,2190,LiAcO3,Li,Ac,0,element not in BV,element not in BV,0.92,1.12,orthorhombic,-2.369,0.103,0,13.879,2.806,5.9,6.224,7.559,90,90,90,-0.964,0.8296296296,0.6498511714,5.392,5.17,0.98,1.1,0.6509871953999999
2192,2192,2192,LiAlO3,Li,Al,0,not balanced,not balanced,0.92,0.54,orthorhombic,-2.188,0.18,-,8.383,3.175,5.155,5.406,6.017,90,90,90,-1.731,0.4,0.8492763986,5.392,5.986000000000001,0.98,1.61,0.8456122331999999
2193,2193,2193,LiAsO3,Li,As,0,1,5,0.92,0.46,orthorhombic,-1.66,0.164,-,8.634,1.977,4.891,5.003,7.058,90,90,90,1.238,0.3407407407,0.886813477,5.392,9.81,0.98,2.18,0.8819826518
2198,2198,2198,LiBiO3,Li,Bi,0,1,5,0.92,0.76,orthorhombic,-1.445,0.037,-,11.688,0.781,5.414,5.501,7.849,90,90,90,0.067,0.5629629629999999,0.7607262526999999,5.392,7.289,0.98,2.02,0.7594850612999999
2201,2201,2201,LiCeO3,Li,Ce,0,not balanced,not balanced,0.92,0.94,orthorhombic,-2.294,0.148,0,12.915,2.519,5.819,6.018,7.376,90,90,90,-2.253,0.6962962963,0.7009311761,5.392,5.54,0.98,1.12,0.7010631334999999
2219,2219,2219,LiLaO3,Li,La,0,not balanced,not balanced,0.92,1.03,orthorhombic,-2.405,0.133,0,12.879,2.829,5.849,6.005,7.334,90,90,90,-1.742,0.762962963,0.6744253753,5.392,5.58,0.98,1.1,0.6750978322
2226,2226,2226,LiNbO3,Li,Nb,1,1,5,0.92,0.64,rhombohedral,-2.704,0.033,0,10.725,2.613,5.467,5.467,5.467,56.9,56.9,56.9,4.763,0.47407407409999996,0.8065991926,5.392,6.88,0.98,1.6,0.8041606531000001
2227,2227,2227,LiNdO3,Li,Nd,0,not balanced,not balanced,0.92,0.98,orthorhombic,-2.335,0.187,0,12.423,2.55,5.762,5.941,7.258,90,90,90,-2.224,0.7259259259,0.6888980229,5.392,5.53,0.98,1.14,0.6892805598
2229,2229,2229,LiNpO3,Li,Np,0,element not in BV,element not in BV,0.92,0.86,rhombohedral,-2.882,0.05,0.4,12.707,1.647,5.877,5.877,5.877,55.1,55.1,55.1,1.274,0.637037037,0.7263042504,5.392,6.19,0.98,1.36,0.7258795276000001
2231,2231,2231,LiPaO3,Li,Pa,0,element not in BV,element not in BV,0.92,0.91,rhombohedral,-2.963,-0.311,0,13.301,4.216,5.976,5.976,5.976,54.9,54.9,54.9,5.528,0.6740740741,0.7102355723,5.392,5.89,0.98,1.5,0.7101678495
2235,2235,2235,LiPrO3,Li,Pr,0,not balanced,not balanced,0.92,0.92,orthorhombic,-2.317,0.153,0,12.66,2.754,5.793,5.974,7.316,90,90,90,-2.28,0.6814814815000001,0.7071067812,5.392,5.46,0.98,1.13,0.7071067812
2237,2237,2237,LiPuO3,Li,Pu,0,element not in BV,element not in BV,0.92,0.83,orthorhombic,-2.653,-0.046,0.6,12.122,1.592,5.445,5.519,8.067,90,90,90,0.694,0.6148148148,0.7362992629999999,5.392,6.06,0.98,1.28,0.735644723
2242,2242,2242,LiSbO3,Li,Sb,0,1,5,0.92,0.6,rhombohedral,-1.906,0.049,-,10.472,2.403,5.371,5.371,5.371,58.1,58.1,58.1,2.451,0.44444444439999997,0.8231448171,5.392,8.641,0.98,2.05,0.8202438662
2246,2246,2246,LiSnO3,Li,Sn,0,not balanced,not balanced,0.92,0.69,orthorhombic,-1.623,0.24,-,10.63,2.954,5.388,5.467,7.217,90,90,90,-0.934,0.5111111111,0.7868296046,5.392,7.343999999999999,0.98,1.96,0.78492236
2248,2248,2248,LiTaO3,Li,Ta,0,1,5,0.92,0.64,rhombohedral,-2.95,0.016,0,10.582,3.544,5.444,5.444,5.444,56.9,56.9,56.9,5.721,0.47407407409999996,0.8065991926,5.392,7.89,0.98,1.5,0.8041606531000001
2256,2256,2256,LiUO3,Li,U,0,1,5,0.92,0.76,rhombohedral,-3.146,0,0.2,12.908,3.281,5.888,5.888,5.888,55.4,55.4,55.4,4.056,0.5629629629999999,0.7607262526999999,5.392,6.05,0.98,1.38,0.7594850612999999
2257,2257,2257,LiVO3,Li,V,0,1,5,0.92,0.54,tetragonal,-2.299,0.074,0,11.23,0.815,3.608,3.608,4.312,90,90,90,2.005,0.4,0.8492763986,5.392,6.74,0.98,1.63,0.8456122331999999
2263,2263,2263,LuAcO3,Lu,Ac,0,element not in BV,element not in BV,1.03,1.12,orthorhombic,-3.553,0.24,0,16.779,3.32,6.073,6.194,8.921,90,90,90,0.046,0.8296296296,0.6813417568000001,5.4259,5.17,1.27,1.1,0.6818529676
2265,2265,2265,LuAlO3,Lu,Al,1,3,3,1.03,0.54,orthorhombic,-3.622,-0.008,0,9.848,6.174,5.078,5.326,7.283,90,90,90,6.179,0.4,0.8904307615000001,5.4259,5.986000000000001,1.27,1.61,0.8857059166
2268,2268,2268,LuBO3,Lu,B,0,3,3,1.03,0.27,cubic,-2.525,0.88,0,7.901,3.125,3.406,3.406,3.406,90,90,90,5.405,0.2,1.0388358884,5.4259,8.298,1.27,2.04,1.0289038792
2269,2269,2269,LuBaO3,Lu,Ba,0,not balanced,not balanced,1.03,1.35,orthorhombic,-2.871,0.291,0.2,17.7,0.642,6.409,6.753,8.18,90,90,90,-8.533,1.0,0.623301533,5.4259,5.212000000000001,1.27,0.89,0.6248252648
2275,2275,2275,LuCoO3,Lu,Co,0,3,3,1.03,0.61,orthorhombic,-2.573,0.035,0,10.328,1.41,5.114,5.546,7.283,90,90,90,1.89,0.4518518519,0.8586296629000001,5.4259,7.86,1.27,1.88,0.854860437
2276,2276,2276,LuCrO3,Lu,Cr,1,3,3,1.03,0.62,orthorhombic,-3.233,-0.011,0.6,10.7,2.393,5.175,5.519,7.493,90,90,90,3.926,0.4592592593,0.8542711367,5.4259,6.766,1.27,1.66,0.8506284545999999
2278,2278,2278,LuCuO3,Lu,Cu,0,3,3,1.03,0.54,orthorhombic,-2.309,0.018,0,10.498,0.273,5.121,5.809,7.059,90,90,90,0.256,0.4,0.8904307615000001,5.4259,7.726,1.27,1.9,0.8857059166
2279,2279,2279,LuDyO3,Lu,Dy,0,3,3,1.03,0.91,cubic,-2.753,1.153,0,15.334,0.591,4.248,4.248,4.248,90,90,90,-0.415,0.6740740741,0.7446522740000001,5.4259,5.94,1.27,1.22,0.7438396009999999
2280,2280,2280,LuErO3,Lu,Er,0,3,3,1.03,0.89,cubic,-2.856,1.073,0,14.843,0.878,4.202,4.202,4.202,90,90,90,0.359,0.6592592593,0.751300955,5.4259,6.101,1.27,1.24,0.7503360167
2282,2282,2282,LuFeO3,Lu,Fe,1,3,3,1.03,0.65,orthorhombic,-2.808,0.001,1,10.832,1.263,5.197,5.533,7.534,90,90,90,2.726,0.4814814815,0.8414570695999999,5.4259,7.87,1.27,1.83,0.8381802333
2283,2283,2283,LuGaO3,Lu,Ga,0,3,3,1.03,0.62,orthorhombic,-3.002,0.03,0,10.647,4.106,5.172,5.507,7.477,90,90,90,4.166,0.4592592593,0.8542711367,5.4259,5.999,1.27,1.81,0.8506284545999999
2284,2284,2284,LuGdO3,Lu,Gd,0,3,3,1.03,0.94,cubic,-2.635,1.242,0,15.96,0.417,4.305,4.305,4.305,90,90,90,-1.222,0.6962962963,0.734897004,5.4259,6.15,1.27,1.2,0.7343031958
2288,2288,2288,LuHoO3,Lu,Ho,0,3,3,1.03,0.9,cubic,-2.808,1.11,0,15.148,0.884,4.231,4.231,4.231,90,90,90,-0.008,0.6666666667,0.7479618397,5.4259,6.018,1.27,1.23,0.7470736862
2289,2289,2289,LuInO3,Lu,In,0,3,3,1.03,0.8,cubic,-2.01,0.893,0,13.548,0.993,4.076,4.076,4.076,90,90,90,2.407,0.5925925926,0.7827507624,5.4259,5.7860000000000005,1.27,1.78,0.7810315809999999
2294,2294,2294,Lu2O3,Lu,Lu,0,3,3,1.03,0.86,cubic,-3.004,0.957,0,14.132,0.853,4.134,4.134,4.134,90,90,90,1.406,0.637037037,0.7614996104999999,5.4259,5.4259,1.27,1.27,0.7602962293000001
2296,2296,2296,LuMnO3,Lu,Mn,1,3,3,1.03,0.65,orthorhombic,-2.982,0.052,0.8,10.871,0.422,5.189,5.658,7.406,90,90,90,3.157,0.4814814815,0.8414570695999999,5.4259,7.435,1.27,1.55,0.8381802333
2316,2316,2316,LuScO3,Lu,Sc,0,3,3,1.03,0.75,cubic,-3.189,0.696,0,12.449,2.638,3.963,3.963,3.963,90,90,90,4.801,0.5555555556,0.8013876853,5.4259,6.54,1.27,1.36,0.7991951062
2320,2320,2320,LuSrO3,Lu,Sr,0,not balanced,not balanced,1.03,1.18,orthorhombic,-2.972,0.246,0.2,15.952,0.922,6.174,6.355,8.132,90,90,90,-5.38,0.8740740740999999,0.6651834542,5.4259,5.695,1.27,0.95,0.6659959218
2327,2327,2327,LuTlO3,Lu,Tl,0,3,3,1.03,0.89,orthorhombic,-2.3,0.149,0,13.621,1.053,5.447,5.792,8.636,90,90,90,0.315,0.6592592593,0.751300955,5.4259,6.108,1.27,1.62,0.7503360167
2328,2328,2328,LuTmO3,Lu,Tm,0,3,3,1.03,0.88,cubic,-2.919,1.027,0,14.578,1.025,4.177,4.177,4.177,90,90,90,0.782,0.6518518519,0.7546700176000001,5.4259,6.184,1.27,1.25,0.7536269642
2332,2332,2332,LuYO3,Lu,Y,0,3,3,1.03,0.9,cubic,-2.729,1.156,0,15.313,0.868,4.246,4.246,4.246,90,90,90,-0.404,0.6666666667,0.7479618397,5.4259,6.38,1.27,1.22,0.7470736862
2336,2336,2336,MgAcO3,Mg,Ac,0,element not in BV,element not in BV,0.89,1.12,orthorhombic,-2.778,0.199,0.2,15.257,0.592,5.598,6.166,8.84,90,90,90,-,0.8296296296,0.6412628299,7.646,5.17,1.31,1.1,0.6425692575
2342,2342,2342,MgBaO3,Mg,Ba,0,not balanced,not balanced,0.89,1.35,orthorhombic,-2.189,0.261,-,15.988,2.388,6.136,6.627,7.863,90,90,90,-0.976,1.0,0.5866367370000001,7.646,5.212000000000001,1.31,0.89,0.5888271014
2347,2347,2347,MgCeO3,Mg,Ce,0,2,4,0.89,0.87,orthorhombic,-2.711,0.236,0.2,14.417,0.613,5.674,5.946,8.548,90,90,90,-3.54,0.6444444443999999,0.7134771125,7.646,5.54,1.31,1.12,0.7133367969
2358,2358,2358,MgGeO3,Mg,Ge,0,2,4,0.89,0.53,cubic,-1.882,0.522,-,10.036,1.576,3.688,3.688,3.688,90,90,90,3.024,0.39259259259999996,0.8425102073999999,7.646,7.899,1.31,2.01,0.8390023466
2359,2359,2359,MgHfO3,Mg,Hf,0,2,4,0.89,0.71,cubic,-2.878,0.604,0,13.227,1.009,4.044,4.044,4.044,90,90,90,3.554,0.5259259259000001,0.7688928106,7.646,6.65,1.31,1.3,0.7674286867
2365,2365,2365,MgLaO3,Mg,La,0,not balanced,not balanced,0.89,1.03,orthorhombic,-2.815,0.229,0.2,14.3,0.655,5.56,5.995,8.58,90,90,90,-3.153,0.762962963,0.6655122646,7.646,5.58,1.31,1.1,0.6663681189
2369,2369,2369,MgMnO3,Mg,Mn,0,2,4,0.89,0.53,orthorhombic,-2.219,0.077,0.6,9.249,0.705,4.951,5.183,7.208,90,90,90,0.004,0.39259259259999996,0.8425102073999999,7.646,7.435,1.31,1.55,0.8390023466
2373,2373,2373,MgNdO3,Mg,Nd,0,not balanced,not balanced,0.89,0.98,orthorhombic,-2.762,0.289,0.2,13.928,0.68,5.633,5.854,8.447,90,90,90,-3.289,0.7259259259,0.6797936437000001,7.646,5.53,1.31,1.14,0.6803674490999999
2375,2375,2375,MgNpO3,Mg,Np,0,element not in BV,element not in BV,0.89,0.86,orthorhombic,-3.18,0.225,0.6,13.121,2.588,5.597,5.647,8.303,90,90,90,1.747,0.637037037,0.7167055158,7.646,6.19,1.31,1.36,0.7164931543999999
2381,2381,2381,MgPrO3,Mg,Pr,0,2,4,0.89,0.85,orthorhombic,-2.739,0.236,0.2,14.145,0.821,5.647,5.893,8.5,90,90,90,-3.347,0.6296296296,0.7199632681,7.646,5.46,1.31,1.13,0.7196775684000001
2383,2383,2383,MgPuO3,Mg,Pu,0,element not in BV,element not in BV,0.89,0.83,orthorhombic,-3.087,0.061,0.8,12.91,1.564,5.567,5.617,8.258,90,90,90,1.122,0.6148148148,0.7265684357,7.646,6.06,1.31,1.28,0.7261320756999999
2390,2390,2390,MgSiO3,Mg,Si,0,2,4,0.89,0.4,orthorhombic,-2.869,0.208,-,8.157,5.946,4.783,4.936,6.91,90,90,90,5.267,0.2962962963,0.9050966799,7.646,8.151,1.31,1.9,0.8995969604999999
2391,2391,2391,MgSmO3,Mg,Sm,0,not balanced,not balanced,0.89,0.96,orthorhombic,-2.805,0.232,0.201,13.55,0.726,5.593,5.79,8.368,90,90,90,-3.053,0.7111111111,0.685679303,7.646,5.64,1.31,1.17,0.686133275
2392,2392,2392,MgSnO3,Mg,Sn,0,2,4,0.89,0.69,cubic,-1.725,0.625,-,12.762,1.143,3.996,3.996,3.996,90,90,90,2.673,0.5111111111,0.7764309754000001,7.646,7.343999999999999,1.31,1.96,0.7747725019
2399,2399,2399,MgTiO3,Mg,Ti,0,2,4,0.89,0.61,orthorhombic,-3.094,0.094,0,9.849,2.296,5.044,5.28,7.396,90,90,90,3.878,0.4518518519,0.8081220356000001,7.646,6.82,1.31,1.54,0.8056092184
2402,2402,2402,MgUO3,Mg,U,0,2,4,0.89,0.89,orthorhombic,-3.256,0.214,0.4,13.324,2.986,5.635,5.645,8.377,90,90,90,3.749,0.6592592593,0.7071067812,7.646,6.05,1.31,1.38,0.7071067812
2408,2408,2408,MgZrO3,Mg,Zr,0,2,4,0.89,0.72,cubic,-2.676,0.682,0,13.812,0.843,4.103,4.103,4.103,90,90,90,2.605,0.5333333333,0.7651783526,7.646,6.84,1.31,1.33,0.7638087401000001
2409,2409,2409,MnAcO3,Mn,Ac,0,element not in BV,element not in BV,0.96,1.12,orthorhombic,-2.604,0.314,0.8,15.237,0.299,5.902,5.987,8.625,90,90,90,-3.019,0.8296296296,0.6613022933,7.435,5.17,1.55,1.1,0.6622111125
2415,2415,2415,MnBaO3,Mn,Ba,0,not balanced,not balanced,0.96,1.35,orthorhombic,-2.124,0.256,0.6,16.689,0.628,5.643,6.015,9.832,90,90,90,-6.269,1.0,0.604969135,7.435,5.212000000000001,1.55,0.89,0.6068261831
2418,2418,2418,MnCaO3,Mn,Ca,0,not balanced,not balanced,0.96,1.0,rhombohedral,-2.18,0.263,0.6,13.723,1.528,6.016,6.016,6.016,55.3,55.3,55.3,-,0.7407407407,0.6950709211,7.435,6.1129999999999995,1.55,1,0.6953216682
2420,2420,2420,MnCeO3,Mn,Ce,0,2,4,0.96,0.87,orthorhombic,-2.529,0.319,0.8,14.238,0.315,5.784,5.808,8.475,90,90,90,-3.48,0.6444444443999999,0.7357732723,7.435,5.54,1.55,1.12,0.7351418518
2430,2430,2430,MnGdO3,Mn,Gd,0,not balanced,not balanced,0.96,0.94,orthorhombic,-2.667,0.279,0.8,12.844,0.346,5.661,5.68,7.989,90,90,90,-2.85,0.6962962963,0.7132823863,7.435,6.15,1.55,1.2,0.7131504289
2431,2431,2431,MnGeO3,Mn,Ge,0,2,4,0.96,0.53,orthorhombic,-1.941,0.085,1,9.776,1.382,5.09,5.237,7.334,90,90,90,3.174,0.39259259259999996,0.8688386514,7.435,7.899,1.55,2.01,0.8646487065
2432,2432,2432,MnHfO3,Mn,Hf,0,2,4,0.96,0.71,orthorhombic,-3.093,0.026,1,11.554,3.348,5.331,5.551,7.809,90,90,90,3.919,0.5259259259000001,0.7929207109,7.435,6.65,1.55,1.3,0.7908872055
2437,2437,2437,MnKO3,Mn,K,0,not balanced,not balanced,0.96,1.38,orthorhombic,-1.543,0.118,0.4,14.955,0.977,4.945,5.6,10.8,90,90,90,-5.171,1.0222222222,0.5983211225,7.435,4.341,1.55,0.82,0.6002776991
2438,2438,2438,MnLaO3,Mn,La,0,not balanced,not balanced,0.96,1.03,orthorhombic,-2.639,0.293,0.8,14.125,0.268,5.791,5.842,8.351,90,90,90,-3.007,0.762962963,0.6863095229,7.435,5.58,1.55,1.1,0.68673745
2444,2444,2444,MnNaO3,Mn,Na,0,not balanced,not balanced,0.96,1.02,orthorhombic,-1.473,0.259,0.4,12.273,0.729,5.121,5.153,9.301,90,90,90,-3.164,0.7555555556,0.6892053437000001,7.435,5.138999999999999,1.55,0.93,0.6895752081000001
2446,2446,2446,MnNdO3,Mn,Nd,0,not balanced,not balanced,0.96,0.98,orthorhombic,-2.579,0.307,0.8,13.679,0.345,5.754,5.799,8.2,90,90,90,-3.216,0.7259259259,0.7010371951000001,7.435,5.53,1.55,1.14,0.7011647073999999
2450,2450,2450,MnPaO3,Mn,Pa,0,element not in BV,element not in BV,0.96,0.91,rhombohedral,-2.66,0.014,1.2,14.951,1.705,6.063,6.063,6.063,57.8,57.8,57.8,4.966,0.6740740741,0.7227507365000001,7.435,5.89,1.55,1.5,0.7224121228