,Unnamed: 0,Unnamed: 0.1,Chemical formula,A,B,In literature,Valence A,Valence B,Radius A [ang],Radius B [ang],Lowest distortion,Formation energy [eV/atom],Stability [eV/atom],Magnetic moment [mu_B],Volume per atom [A^3/atom],Band gap [eV],a [ang],b [ang],c [ang],alpha [deg],beta [deg],gamma [deg],Vacancy energy [eV/O atom],Octahedral Factor,Tolerance Factor,A Ionization Energy,B Ionization Energy,A Electronegativity,B Electronegativity,Goldschmidt Tolerance Factor
4851,4851,4851,UMnO3,U,Mn,0,3,3,1.03,0.65,orthorhombic,-2.991,0.115,1.4,12.781,1.822,5.463,5.94,7.879,90,90,90,3.81,0.4814814815,0.8414570695999999,6.05,7.435,1.38,1.55,0.8381802333
4853,4853,4853,UNaO3,U,Na,0,not balanced,not balanced,1.17,1.02,orthorhombic,-2.87,0.238,0.2,13.162,2.597,5.483,5.74,8.365,90,90,90,-4.483,0.7555555556,0.7518603748999999,6.05,5.138999999999999,1.38,0.93,0.7509357139
4860,4860,4860,UPbO3,U,Pb,0,not balanced,not balanced,1.17,0.99,orthorhombic,-2.554,0.266,0.4,17.378,0.881,5.706,5.963,10.215,90,90,90,-,0.7333333333,0.7614996104999999,6.05,7.416,1.38,2.33,0.7603616851999999
4866,4866,4866,URbO3,U,Rb,0,not balanced,not balanced,1.17,1.52,orthorhombic,-2.834,0.28,0.2,18.845,2.31,5.387,5.747,12.174,90,90,90,-10.746,1.1259259259,0.6208742468999999,6.05,4.177,1.38,0.82,0.6223508314
4871,4871,4871,UScO3,U,Sc,0,3,3,1.03,0.75,orthorhombic,-3.609,0.013,0.6,13.125,2.023,5.6,5.831,8.039,90,90,90,4.046,0.5555555556,0.8013876853,6.05,6.54,1.38,1.36,0.7991951062
4875,4875,4875,USrO3,U,Sr,0,4,2,1.17,1.18,orthorhombic,-3.326,0.161,0.4,16.725,1.939,5.809,5.967,9.651,90,90,90,-7.732,0.8740740740999999,0.7043118926999999,6.05,5.695,1.38,0.95,0.7043660572
4885,4885,4885,UVO3,U,V,0,3,3,1.03,0.64,orthorhombic,-3.176,0.02,1,12.447,1.685,5.392,5.949,7.76,90,90,90,4.461,0.47407407409999996,0.8456854971,6.05,6.74,1.38,1.63,0.8422889599
4891,4891,4891,VAcO3,V,Ac,0,element not in BV,element not in BV,0.72,1.12,orthorhombic,-2.93,0.291,0.4,15.507,1.198,5.844,5.912,8.977,90,90,90,-,0.8296296296,0.5925955615999999,6.74,5.17,1.63,1.1,0.5948676096
4892,4892,4892,VAgO3,V,Ag,0,not balanced,not balanced,0.72,0.95,orthorhombic,-1.633,0.074,0,13.017,1.337,5.179,5.572,9.022,90,90,90,-6.146,0.7037037037,0.6363961031,6.74,7.5760000000000005,1.63,1.93,0.6379005856000001
4893,4893,4893,VAlO3,V,Al,0,not balanced,not balanced,0.72,0.54,orthorhombic,-2.863,0.085,0.4,8.938,1.896,4.981,5.175,6.935,90,90,90,-0.28,0.4,0.7744502842000001,6.74,5.986000000000001,1.63,1.61,0.7727146268999999
4897,4897,4897,VBaO3,V,Ba,0,not balanced,not balanced,0.72,1.35,orthorhombic,-2.704,0.162,0.2,16.597,1.269,5.416,5.953,10.295,90,90,90,-13.06,1.0,0.5421151989,6.74,5.212000000000001,1.63,0.89,0.5451150459
4899,4899,4899,VBiO3,V,Bi,0,not balanced,not balanced,0.72,0.9,orthorhombic,-1.819,0.233,0.4,13.85,0.451,5.724,5.773,8.382,90,90,90,-,0.6666666667,0.6505382386999999,6.74,7.289,1.63,2.02,0.6517679896
4900,4900,4900,VCaO3,V,Ca,0,not balanced,not balanced,0.72,1.0,orthorhombic,-2.726,0.175,0.2,13.001,1.207,5.508,5.518,8.554,90,90,90,-,0.7407407407,0.6228557604,6.74,6.1129999999999995,1.63,1,0.62461099
4901,4901,4901,VCdO3,V,Cd,0,not balanced,not balanced,0.72,0.95,orthorhombic,-1.843,0.19,0.2,12.529,0.206,5.335,5.416,8.671,90,90,90,-7.137,0.7037037037,0.6363961031,6.74,8.993,1.63,1.69,0.6379005856000001
4902,4902,4902,VCeO3,V,Ce,0,2,4,0.79,0.87,orthorhombic,-2.861,0.298,0.4,14.417,1.39,5.738,5.883,8.542,90,90,90,-7.387,0.6444444443999999,0.6816254556999999,6.74,5.54,1.63,1.12,0.6821867184
4919,4919,4919,VKO3,V,K,0,not balanced,not balanced,0.72,1.38,orthorhombic,-2.333,0.037,0,16.119,2.424,5.479,5.683,10.354,90,90,90,-9.684,1.0222222222,0.5361578889999999,6.74,4.341,1.63,0.82,0.5392325094
4920,4920,4920,VLaO3,V,La,0,not balanced,not balanced,0.72,1.03,orthorhombic,-2.973,0.275,0.4,14.351,1.388,5.725,5.85,8.571,90,90,90,-6.936,0.762962963,0.6150046374,6.74,5.58,1.63,1.1,0.6168997433
4921,4921,4921,VLiO3,V,Li,0,not balanced,not balanced,0.72,0.76,orthorhombic,-2.164,0.208,0,8.948,1.794,4.691,5.019,7.601,90,90,90,-5.697,0.5629629629999999,0.6937019133,6.74,5.392,1.63,0.98,0.6940122112
4926,4926,4926,VNaO3,V,Na,0,not balanced,not balanced,0.72,1.02,orthorhombic,-2.233,0.242,0,12.446,2.123,5.305,5.535,8.478,90,90,90,-10.109,0.7555555556,0.6175995937,6.74,5.138999999999999,1.63,0.93,0.6194489157999999
4928,4928,4928,VNdO3,V,Nd,0,not balanced,not balanced,0.72,0.98,orthorhombic,-2.912,0.284,0.4,13.858,1.358,5.687,5.808,8.392,90,90,90,-5.876,0.7259259259,0.6282021618,6.74,5.53,1.63,1.14,0.6298598219
4930,4930,4930,VNpO3,V,Np,0,element not in BV,element not in BV,0.72,0.86,orthorhombic,-2.917,0.247,1.2,13.46,1.331,5.548,5.831,8.321,90,90,90,-,0.637037037,0.6623126865,6.74,6.19,1.63,1.36,0.6633037062
4933,4933,4933,VPbO3,V,Pb,0,2,4,0.79,0.78,rhombohedral,-1.794,0.288,0.2,16.128,1.394,6.164,6.164,6.164,58.9,58.9,58.9,-,0.5777777778000001,0.7104265313,6.74,7.416,1.63,2.33,0.7103503903
4936,4936,4936,VPrO3,V,Pr,0,2,4,0.79,0.85,orthorhombic,-2.888,0.292,0.4,14.118,1.315,5.723,5.819,8.479,90,90,90,-7.01,0.6296296296,0.6878220508,6.74,5.46,1.63,1.13,0.6882506004000001
4938,4938,4938,VPuO3,V,Pu,0,element not in BV,element not in BV,0.72,0.83,orthorhombic,-2.85,0.29,1.4,13.196,0.614,5.536,5.782,8.246,90,90,90,-,0.6148148148,0.6714270812,6.74,6.06,1.63,1.28,0.6722270745000001
4939,4939,4939,VRbO3,V,Rb,0,not balanced,not balanced,0.72,1.52,orthorhombic,-2.339,0.029,0,17.828,2.477,5.618,5.953,10.66,90,90,90,-19.751,1.1259259259,0.5100038457,6.74,4.177,1.63,0.82,0.5133788959000001
4946,4946,4946,VSmO3,V,Sm,0,not balanced,not balanced,0.72,0.96,orthorhombic,-2.955,0.268,0.4,13.425,1.638,5.655,5.74,8.271,90,90,90,-6.477,0.7111111111,0.6336411416,6.74,5.64,1.63,1.17,0.635197617
4948,4948,4948,VSrO3,V,Sr,0,not balanced,not balanced,0.72,1.18,orthorhombic,-2.723,0.158,0.2,14.899,1.523,5.532,5.639,9.553,90,90,90,-9.981,0.8740740740999999,0.5785419118999999,6.74,5.695,1.63,0.95,0.5810334790999999
4955,4955,4955,VTlO3,V,Tl,0,not balanced,not balanced,0.72,1.2,orthorhombic,-1.566,0.404,0.4,12.645,0.209,5.575,5.589,8.116,90,90,90,-5.31,0.8888888889,0.5740043283,6.74,6.108,1.63,1.62,0.5765639908
4965,4965,4965,WAgO3,W,Ag,0,3,3,0.66,0.75,orthorhombic,-1.414,0.543,0,13.656,0.532,5.252,6.199,8.389,90,90,90,-12.443,0.5555555556,0.6768022048000001,7.98,7.5760000000000005,2.36,1.93,0.6775069624
4970,4970,4970,WBaO3,W,Ba,0,4,2,0.66,1.35,rhombohedral,-2.419,0.308,0,18.913,1.695,6.269,6.269,6.269,63.9,63.9,63.9,-18.683,1.0,0.5264017149,7.98,5.212000000000001,2.36,0.89,0.5296872615
4973,4973,4973,WCaO3,W,Ca,0,4,2,0.66,1.0,rhombohedral,-2.37,0.393,0,14.438,0.855,5.777,5.777,5.777,62.7,62.7,62.7,-13.482,0.7407407407,0.6048019703,7.98,6.1129999999999995,2.36,1,0.6069333204999999
4974,4974,4974,WCdO3,W,Cd,0,4,2,0.66,0.95,rhombohedral,-1.494,0.462,0,13.866,1.108,5.444,5.444,5.444,70.4,70.4,70.4,-12.523,0.7037037037,0.6179498392,7.98,8.993,2.36,1.69,0.6198467954
4978,4978,4978,WCsO3,W,Cs,0,not balanced,not balanced,0.63,1.67,rhombohedral,-1.921,0.284,0.2,24.231,1.548,6.994,6.994,6.994,60.1,60.1,60.1,-,1.2370370370000001,0.4635998102,7.98,3.8939999999999997,2.36,0.79,0.4675657218
5021,5021,5021,WSrO3,W,Sr,0,4,2,0.66,1.18,rhombohedral,-2.413,0.332,0,16.614,1.361,6.037,6.037,6.037,63.1,63.1,63.1,-16.873,0.8740740740999999,0.5617725811,7.98,5.695,2.36,0.95,0.5645891354
5039,5039,5039,YAlO3,Y,Al,1,3,3,1.08,0.54,orthorhombic,-3.56,-0.023,0,10.255,5.872,5.188,5.347,7.394,90,90,90,6.272,0.4,0.9091372901000001,6.38,5.986000000000001,1.22,1.61,0.9039303181999999
5042,5042,5042,YBO3,Y,B,0,3,3,1.08,0.27,cubic,-2.487,0.88,0,8.307,2.953,3.463,3.463,3.463,90,90,90,5.345,0.2,1.0606601718000002,6.38,8.298,1.22,2.04,1.0500747409
5043,5043,5043,YBaO3,Y,Ba,0,not balanced,not balanced,1.08,1.35,orthorhombic,-2.811,0.275,0.2,18.577,0.709,6.515,6.787,8.403,90,90,90,-7.335,1.0,0.6363961031,6.38,5.212000000000001,1.22,0.89,0.6376817518
5048,5048,5048,YCeO3,Y,Ce,0,3,3,1.08,1.01,cubic,-2.323,1.342,0,18.662,0.389,4.536,4.536,4.536,90,90,90,-2.979,0.7481481481000001,0.7280802874,6.38,5.54,1.22,1.12,0.7276451523999999
5050,5050,5050,YCrO3,Y,Cr,1,3,3,1.08,0.62,orthorhombic,-3.178,-0.033,0.6,11.195,2.6,5.281,5.578,7.6,90,90,90,4.248,0.4592592593,0.8722180093,6.38,6.766,1.22,1.66,0.8681310977
5052,5052,5052,YCuO3,Y,Cu,0,3,3,1.08,0.54,orthorhombic,-2.259,0.048,0,11.081,0.374,5.237,5.899,7.174,90,90,90,0.702,0.4,0.9091372901000001,6.38,7.726,1.22,1.9,0.9039303181999999
5053,5053,5053,YDyO3,Y,Dy,0,3,3,1.08,0.91,cubic,-2.911,0.918,0,15.491,1.445,4.263,4.263,4.263,90,90,90,1.026,0.6740740741,0.7602962293000001,6.38,5.94,1.22,1.22,0.7591449426000001
5054,5054,5054,YErO3,Y,Er,0,3,3,1.08,0.89,cubic,-3.01,0.842,0,15.017,1.895,4.219,4.219,4.219,90,90,90,1.808,0.6592592593,0.7670845884999999,6.38,6.101,1.22,1.24,0.7657750294
5056,5056,5056,YFeO3,Y,Fe,1,3,3,1.08,0.65,orthorhombic,-2.758,-0.029,1,11.329,1.153,5.298,5.607,7.627,90,90,90,3.19,0.4814814815,0.8591347390999999,6.38,7.87,1.22,1.83,0.8554267402
5057,5057,5057,YGaO3,Y,Ga,1,3,3,1.08,0.62,orthorhombic,-2.946,0.024,0,11.113,4.139,5.277,5.565,7.569,90,90,90,4.486,0.4592592593,0.8722180093,6.38,5.999,1.22,1.81,0.8681310977
5058,5058,5058,YGdO3,Y,Gd,0,3,3,1.08,0.94,cubic,-2.798,1.002,0,16.091,1.371,4.317,4.317,4.317,90,90,90,0.203,0.6962962963,0.7503360167,6.38,6.15,1.22,1.2,0.7494123151000001
5062,5062,5062,YHoO3,Y,Ho,0,3,3,1.08,0.9,cubic,-2.963,0.878,0,15.248,1.662,4.24,4.24,4.24,90,90,90,1.406,0.6666666667,0.7636753237,6.38,6.018,1.22,1.23,0.7624455728
5063,5063,5063,YInO3,Y,In,0,3,3,1.08,0.8,cubic,-2.108,0.718,0,13.003,1.415,4.021,4.021,4.021,90,90,90,-,0.5925925926,0.7991951062,6.38,5.7860000000000005,1.22,1.78,0.7971021897
5066,5066,5066,YLaO3,Y,La,0,3,3,1.08,1.03,cubic,-2.446,1.315,0,18.419,0.387,4.516,4.516,4.516,90,90,90,-2.941,0.762962963,0.7219619656999999,6.38,5.58,1.22,1.1,0.7216563034000001
5068,5068,5068,YLuO3,Y,Lu,0,3,3,1.08,0.86,cubic,-3.151,0.734,0,14.331,2.052,4.154,4.154,4.154,90,90,90,2.879,0.637037037,0.7774975015000001,6.38,5.4259,1.22,1.27,0.7759401847
5070,5070,5070,YMnO3,Y,Mn,1,3,3,1.08,0.65,orthorhombic,-2.936,0.023,0.8,11.38,0.379,5.293,5.739,7.493,90,90,90,3.468,0.4814814815,0.8591347390999999,6.38,7.435,1.22,1.55,0.8554267402
5074,5074,5074,YNdO3,Y,Nd,0,3,3,1.08,0.98,cubic,-2.502,1.212,0,17.67,0.825,4.454,4.454,4.454,90,90,90,-1.797,0.7259259259,0.7374547117,6.38,5.53,1.22,1.14,0.7368171501
5082,5082,5082,YPrO3,Y,Pr,0,3,3,1.08,0.99,cubic,-2.419,1.273,0,18.136,0.619,4.493,4.493,4.493,90,90,90,-2.36,0.7333333333,0.7343031958,6.38,5.46,1.22,1.13,0.7337342332
5085,5085,5085,YRbO3,Y,Rb,0,not balanced,not balanced,1.08,1.52,orthorhombic,-2.135,0.338,0,18.335,1.451,6.164,6.253,9.515,90,90,90,-8.123,1.1259259259,0.5987001665999999,6.38,4.177,1.22,0.82,0.6005564443
5090,5090,5090,YScO3,Y,Sc,1,3,3,1.08,0.75,orthorhombic,-3.781,0.027,0,12.271,4.661,5.43,5.721,7.901,90,90,90,5.013,0.5555555556,0.8182235610999999,6.38,6.54,1.22,1.36,0.8156394498999999
5092,5092,5092,YSmO3,Y,Sm,0,3,3,1.08,0.96,cubic,-2.647,1.108,0,16.879,1.24,4.386,4.386,4.386,90,90,90,-0.803,0.7111111111,0.7438396009999999,6.38,5.64,1.22,1.17,0.7430613632999999
5101,5101,5101,YTlO3,Y,Tl,0,3,3,1.08,0.89,orthorhombic,-2.265,0.108,0,14.133,1.097,5.576,5.93,8.549,90,90,90,0.61,0.6592592593,0.7670845884999999,6.38,6.108,1.22,1.62,0.7657750294
5102,5102,5102,YTmO3,Y,Tm,0,3,3,1.08,0.88,cubic,-3.07,0.8,0,14.729,1.869,4.192,4.192,4.192,90,90,90,2.191,0.6518518519,0.7705244297,6.38,6.184,1.22,1.25,0.7691336918
5104,5104,5104,YVO3,Y,V,1,3,3,1.08,0.64,orthorhombic,-3.25,-0.031,0.4,11.521,1.489,5.313,5.703,7.605,90,90,90,3.984,0.47407407409999996,0.8634519990999999,6.38,6.74,1.22,1.63,0.8596200085
5106,5106,5106,Y2O3,Y,Y,0,3,3,1.08,0.9,cubic,-2.888,0.92,0,15.51,1.751,4.264,4.264,4.264,90,90,90,1.075,0.6666666667,0.7636753237,6.38,6.38,1.22,1.22,0.7624455728
5189,5189,5189,ZnBaO3,Zn,Ba,0,not balanced,not balanced,0.9,1.35,orthorhombic,-1.712,0.219,-,16.147,2.081,6.108,6.555,8.065,90,90,90,-8.098,1.0,0.589255651,9.394,5.212000000000001,1.65,0.89,0.5913983988
5192,5192,5192,ZnCaO3,Zn,Ca,0,not balanced,not balanced,0.9,1.0,orthorhombic,-1.804,0.159,-,12.398,1.966,5.807,5.954,7.171,90,90,90,-6.668,0.7407407407,0.6770171309,9.394,6.1129999999999995,1.65,1,0.6776439986
5194,5194,5194,ZnCeO3,Zn,Ce,0,2,4,0.9,0.87,orthorhombic,-2.228,0.192,0.2,14.337,0.626,5.515,5.978,8.697,90,90,90,-4.988,0.6444444443999999,0.7166622782,9.394,5.54,1.65,1.12,0.7164518047
5212,5212,5212,ZnLaO3,Zn,La,0,not balanced,not balanced,0.9,1.03,orthorhombic,-2.333,0.183,0.2,14.238,0.656,5.439,5.977,8.759,90,90,90,-4.393,0.762962963,0.6684833015,9.394,5.58,1.65,1.1,0.6692780233
5220,5220,5220,ZnNdO3,Zn,Nd,0,not balanced,not balanced,0.9,0.98,orthorhombic,-2.275,0.258,0.2,13.873,0.509,5.458,5.847,8.694,90,90,90,-4.769,0.7259259259,0.6828284368,9.394,5.53,1.65,1.14,0.6833384859999999
5224,5224,5224,ZnPaO3,Zn,Pa,0,element not in BV,element not in BV,0.9,0.91,rhombohedral,-2.497,0.021,0.2,14.663,1.523,6.136,6.136,6.136,55.6,55.6,55.6,3.359,0.6740740741,0.7039779901000001,9.394,5.89,1.65,1.5,0.7040457129000001
5225,5225,5225,ZnPbO3,Zn,Pb,0,2,4,0.9,0.78,rhombohedral,-1.266,0.062,-,12.801,0.218,5.778,5.778,5.778,57.3,57.3,57.3,-2.514,0.5777777778000001,0.7469437829000001,9.394,7.416,1.65,2.33,0.7460300902
5228,5228,5228,ZnPrO3,Zn,Pr,0,2,4,0.9,0.85,orthorhombic,-2.255,0.193,0.2,14.103,0.655,5.493,5.873,8.743,90,90,90,-4.902,0.6296296296,0.7231773898,9.394,5.46,1.65,1.13,0.7228202652
5238,5238,5238,ZnSmO3,Zn,Sm,0,not balanced,not balanced,0.9,0.96,orthorhombic,-2.311,0.199,0.2,13.484,0.543,5.451,5.759,8.59,90,90,90,-4.454,0.7111111111,0.6887403713,9.394,5.64,1.65,1.17,0.6891294901
5240,5240,5240,ZnSrO3,Zn,Sr,0,not balanced,not balanced,0.9,1.18,orthorhombic,-1.764,0.191,-,14.115,2.076,5.974,6.23,7.585,90,90,90,-8.333,0.8740740740999999,0.6288499042,9.394,5.695,1.65,0.95,0.6303665104
5262,5262,5262,ZrBaO3,Zr,Ba,0,not balanced,not balanced,0.89,1.35,orthorhombic,-3.166,0.311,0,18.714,3.438,6.082,6.18,9.958,90,90,90,-3.113,1.0,0.5866367370000001,6.84,5.212000000000001,1.33,0.89,0.5888271014
5263,5263,5263,ZrBeO3,Zr,Be,0,4,2,0.89,0.45,cubic,-2.706,0.661,0,8.145,0.944,3.44,3.44,3.44,90,90,90,3.63,0.3333333333,0.8799551055,6.84,9.322000000000001,1.33,1.57,0.8752835291
5265,5265,5265,ZrCaO3,Zr,Ca,0,not balanced,not balanced,0.89,1.0,orthorhombic,-3.358,0.159,0,13.518,3.105,5.219,5.5,9.42,90,90,90,-,0.7407407407,0.6740081659,6.84,6.1129999999999995,1.33,1,0.6746977204000001
5284,5284,5284,ZrKO3,Zr,K,0,not balanced,not balanced,0.89,1.38,orthorhombic,-2.492,0.267,0.2,16.137,1.041,6.463,6.889,7.249,90,90,90,-11.897,1.0222222222,0.5801901794,6.84,4.341,1.33,0.82,0.5824728521
5288,5288,5288,ZrMgO3,Zr,Mg,0,not balanced,not balanced,0.89,0.72,cubic,-2.36,0.998,0,10.17,0.718,3.705,3.705,3.705,90,90,90,0.77,0.5333333333,0.7651783526,6.84,7.646,1.33,1.31,0.7638087401000001
5304,5304,5304,ZrRbO3,Zr,Rb,0,not balanced,not balanced,0.89,1.52,orthorhombic,-2.464,0.201,0.2,17.128,1.244,6.546,7.221,7.247,90,90,90,-16.391,1.1259259259,0.5518882195,6.84,4.177,1.33,0.82,0.5545460715
5312,5312,5312,ZrSnO3,Zr,Sn,0,not balanced,not balanced,0.89,0.69,orthorhombic,-2.367,0.428,0,15.092,0.822,5.909,6.048,8.446,90,90,90,1.196,0.5111111111,0.7764309754000001,6.84,7.343999999999999,1.33,1.96,0.7747725019
5313,5313,5313,ZrSrO3,Zr,Sr,0,not balanced,not balanced,0.89,1.18,orthorhombic,-3.229,0.272,0,15.972,3.5,5.87,5.966,9.123,90,90,90,-10.761,0.8740740740999999,0.6260550158,6.84,5.695,1.33,0.95,0.6276257864