,Unnamed: 0,Unnamed: 0.1,Chemical formula,A,B,In literature,Valence A,Valence B,Radius A [ang],Radius B [ang],Lowest distortion,Formation energy [eV/atom],Stability [eV/atom],Magnetic moment [mu_B],Volume per atom [A^3/atom],Band gap [eV],a [ang],b [ang],c [ang],alpha [deg],beta [deg],gamma [deg],Vacancy energy [eV/O atom],Octahedral Factor,Tolerance Factor,A Ionization Energy,B Ionization Energy,A Electronegativity,B Electronegativity,Goldschmidt Tolerance Factor
0,0,0,Ac2O3,Ac,Ac,0,element not in BV,element not in BV,1.12,1.12,cubic,-2.732,0.848,0,20.836,0.332,4.705,4.705,4.705,90,90,90,3.15,0.8296296296,0.7071067812,5.17,5.17,1.1,1.1,0.7071067812
2,2,2,AcAlO3,Ac,Al,0,element not in BV,element not in BV,1.12,0.54,cubic,-3.532,-0.11,0,11.487,4.307,3.858,3.858,3.858,90,90,90,6.695,0.4,0.924102513,5.17,5.986000000000001,1.1,1.61,0.9185098395
4,4,4,AcAuO3,Ac,Au,0,element not in BV,element not in BV,1.12,0.93,orthorhombic,-2.006,-0.056,0,15.19,0.745,5.899,6.75,7.63,90,90,90,0.807,0.6888888889,0.7660323462999999,5.17,9.225,1.1,2.54,0.7647678492000001
5,5,5,AcBO3,Ac,B,0,element not in BV,element not in BV,1.12,0.27,cubic,-2.316,0.786,0,10.075,1.071,3.693,3.693,3.693,90,90,90,4.163,0.2,1.0781195984999998,5.17,8.298,1.1,2.04,1.0670114303
8,8,8,AcBiO3,Ac,Bi,0,element not in BV,element not in BV,1.12,0.9,orthorhombic,-2.5,0.027,0,17.182,1.639,6.09,6.415,8.796,90,90,90,2.653,0.6666666667,0.7762461109000001,5.17,7.289,1.1,2.02,0.7747430820000001
11,11,11,AcCeO3,Ac,Ce,0,element not in BV,element not in BV,1.12,0.94,cubic,-2.864,0.686,0,19.228,1.439,4.581,4.581,4.581,90,90,90,4.197,0.6962962963,0.7626872269,5.17,5.54,1.1,1.12,0.7614996104999999
13,13,13,AcCrO3,Ac,Cr,0,element not in BV,element not in BV,1.12,0.58,orthorhombic,-3.138,-0.107,0.6,12.5,1.817,5.594,5.639,7.925,90,90,90,5.121,0.4296296296,0.9049501293000001,5.17,6.766,1.1,1.66,0.8999540851000001
16,16,16,AcDyO3,Ac,Dy,0,element not in BV,element not in BV,1.12,0.99,orthorhombic,-3.712,0.002,0,15.895,4.542,5.989,6.176,8.595,90,90,90,5.48,0.7333333333,0.7463904912999999,5.17,5.94,1.1,1.22,0.7455686562999999
17,17,17,AcErO3,Ac,Er,0,element not in BV,element not in BV,1.12,0.89,orthorhombic,-3.748,-0.01,0,15.547,4.544,5.96,6.123,8.521,90,90,90,5.682,0.6592592593,0.7797114953000001,5.17,6.101,1.1,1.24,0.7781262395999999
19,19,19,AcFeO3,Ac,Fe,0,element not in BV,element not in BV,1.12,0.67,orthorhombic,-2.731,-0.116,1,12.687,0.906,5.63,5.655,7.97,90,90,90,4.135,0.49629629630000005,0.8646305690999999,5.17,7.87,1.1,1.83,0.8608256467000001
20,20,20,AcGaO3,Ac,Ga,0,element not in BV,element not in BV,1.12,0.62,orthorhombic,-2.914,-0.073,0,12.393,3.174,5.584,5.622,7.895,90,90,90,5.294,0.4592592593,0.8865755073999999,5.17,5.999,1.1,1.81,0.8821332122
21,21,21,AcGdO3,Ac,Gd,0,element not in BV,element not in BV,1.12,0.94,orthorhombic,-3.67,0.016,0,16.276,4.335,6.029,6.225,8.673,90,90,90,5.268,0.6962962963,0.7626872269,5.17,6.15,1.1,1.2,0.7614996104999999
25,25,25,AcHoO3,Ac,Ho,0,element not in BV,element not in BV,1.12,0.9,orthorhombic,-3.731,-0.004,0,15.716,4.552,5.975,6.152,8.551,90,90,90,5.577,0.6666666667,0.7762461109000001,5.17,6.018,1.1,1.23,0.7747430820000001
26,26,26,AcInO3,Ac,In,0,element not in BV,element not in BV,1.12,0.8,orthorhombic,-2.748,-0.036,0,14.775,2.695,5.857,6.035,8.359,90,90,90,3.988,0.5925925926,0.8123505812,5.17,5.7860000000000005,1.1,1.78,0.8099586766
27,27,27,AcIrO3,Ac,Ir,0,element not in BV,element not in BV,1.12,0.63,orthorhombic,-2.194,0.075,0,13.405,0.754,5.616,5.907,8.082,90,90,90,1.277,0.4666666667,0.8820978533,5.17,9.1,1.1,2.2,0.8777877284000001
29,29,29,AcLaO3,Ac,La,0,element not in BV,element not in BV,1.12,1.03,cubic,-2.983,0.663,0,18.986,1.423,4.562,4.562,4.562,90,90,90,4.187,0.762962963,0.7338461131999999,5.17,5.58,1.1,1.1,0.7332959212000001
31,31,31,AcLuO3,Ac,Lu,0,element not in BV,element not in BV,1.12,0.86,orthorhombic,-3.793,-0.022,0,15.05,4.709,5.905,6.047,8.429,90,90,90,5.945,0.637037037,0.7902958143000001,5.17,5.4259,1.1,1.27,0.7884553489
37,37,37,AcNdO3,Ac,Nd,0,element not in BV,element not in BV,1.12,0.98,cubic,-3.029,0.571,0,18.259,1.828,4.503,4.503,4.503,90,90,90,4.679,0.7259259259,0.7495938839,5.17,5.53,1.1,1.14,0.7487012976999999
45,45,45,AcPrO3,Ac,Pr,0,element not in BV,element not in BV,1.12,0.92,cubic,-2.953,0.625,0,18.704,1.649,4.539,4.539,4.539,90,90,90,4.449,0.6814814815000001,0.7694069381,5.17,5.46,1.1,1.13,0.7680642623
48,48,48,AcRbO3,Ac,Rb,0,element not in BV,element not in BV,1.12,1.52,orthorhombic,-1.914,0.444,0,20.923,0.599,5.98,6.089,11.491,90,90,90,-2.002,1.1259259259,0.6085553134,5.17,4.177,1.1,0.82,0.6102428386
50,50,50,AcRhO3,Ac,Rh,0,element not in BV,element not in BV,1.12,0.61,orthorhombic,-2.334,-0.077,0,13.23,0.604,5.635,5.837,8.046,90,90,90,1.899,0.4518518519,0.8910988518,5.17,7.46,1.1,2.28,0.8865219346
52,52,52,AcSbO3,Ac,Sb,0,element not in BV,element not in BV,1.12,0.68,orthorhombic,-2.465,0.114,0,16.31,0.296,5.98,6.327,8.621,90,90,90,2.835,0.5037037037,0.8603713051999999,5.17,8.641,1.1,2.05,0.8566870618000001
53,53,53,AcScO3,Ac,Sc,0,element not in BV,element not in BV,1.12,0.75,orthorhombic,-3.762,-0.068,0,13.854,4.099,5.782,5.844,8.201,90,90,90,6.193,0.5555555556,0.8316922617,5.17,6.54,1.1,1.36,0.8287949249
55,55,55,AcSmO3,Ac,Sm,0,element not in BV,element not in BV,1.12,0.96,orthorhombic,-3.608,0.033,0,16.756,4.287,6.08,6.293,8.759,90,90,90,4.949,0.7111111111,0.7560838743000001,5.17,5.64,1.1,1.17,0.7550462240000001
64,64,64,AcTlO3,Ac,Tl,0,element not in BV,element not in BV,1.12,1.2,orthorhombic,-2.27,-0.012,0,15.973,1.041,5.937,6.296,8.547,90,90,90,1.876,0.8888888889,0.6849230390000001,5.17,6.108,1.1,1.62,0.6853496495
65,65,65,AcTmO3,Ac,Tm,0,element not in BV,element not in BV,1.12,0.96,orthorhombic,-3.772,-0.016,0,15.361,4.565,5.94,6.089,8.494,90,90,90,5.793,0.7111111111,0.7560838743000001,5.17,6.184,1.1,1.25,0.7550462240000001
67,67,67,AcVO3,Ac,V,0,element not in BV,element not in BV,1.12,0.64,orthorhombic,-3.221,-0.116,0.4,12.873,1.21,5.664,5.684,7.997,90,90,90,4.968,0.47407407409999996,0.8776652008,5.17,6.74,1.1,1.63,0.8734848473000001
69,69,69,AcYO3,Ac,Y,0,element not in BV,element not in BV,1.12,0.9,orthorhombic,-3.693,0.001,0,15.939,4.608,5.993,6.183,8.603,90,90,90,5.419,0.6666666667,0.7762461109000001,5.17,6.38,1.1,1.22,0.7747430820000001
79,79,79,AgBaO3,Ag,Ba,0,not balanced,not balanced,1.28,1.35,orthorhombic,-0.989,0.388,-,15.631,0.247,6.636,6.739,6.99,90,90,90,-6.975,1.0,0.6887743832,7.5760000000000005,5.212000000000001,1.93,0.89,0.6891076995000001
109,109,109,AgNbO3,Ag,Nb,1,1,5,1.28,0.64,rhombohedral,-2.009,0.043,0,12.263,1.269,5.611,5.611,5.611,59.2,59.2,59.2,4.672,0.47407407409999996,0.9345180073,7.5760000000000005,6.88,1.93,1.6,0.9289442027
112,112,112,AgNpO3,Ag,Np,0,element not in BV,element not in BV,1.28,0.86,orthorhombic,-2.246,0.086,0.4,14.282,1.698,5.694,6.003,8.356,90,90,90,1.048,0.637037037,0.8414890654,7.5760000000000005,6.19,1.93,1.36,0.838516006
114,114,114,AgPaO3,Ag,Pa,0,element not in BV,element not in BV,1.28,0.91,rhombohedral,-2.326,-0.361,0,14.961,2.571,6.043,6.043,6.043,58.2,58.2,58.2,4.367,0.6740740741,0.8228720506999999,7.5760000000000005,5.89,1.93,1.5,0.8203663089
120,120,120,AgPuO3,Ag,Pu,0,element not in BV,element not in BV,1.28,0.83,orthorhombic,-2.016,0.046,0.6,14.166,0.997,5.67,5.99,8.343,90,90,90,0.281,0.6148148148,0.8530691901,7.5760000000000005,6.06,1.93,1.28,0.8497964904
131,131,131,AgTaO3,Ag,Ta,1,1,5,1.28,0.64,rhombohedral,-2.247,0.018,0,12.114,2.03,5.584,5.584,5.584,59.3,59.3,59.3,5.586,0.47407407409999996,0.9345180073,7.5760000000000005,7.89,1.93,1.5,0.9289442027
139,139,139,AgUO3,Ag,U,0,1,5,1.28,0.76,rhombohedral,-2.513,-0.009,0.2,14.714,2.636,6.032,6.032,6.032,57.7,57.7,57.7,3.748,0.5629629629999999,0.8813700637999999,7.5760000000000005,6.05,1.93,1.38,0.8773361915000001
140,140,140,AgVO3,Ag,V,1,1,5,1.28,0.54,tetragonal,-1.582,0.125,0,11.419,0.341,3.684,3.684,4.208,90,90,90,1.832,0.4,0.9839634045000001,7.5760000000000005,6.74,1.93,1.63,0.9768279245
146,146,146,AlAcO3,Al,Ac,0,element not in BV,element not in BV,0.54,1.12,orthorhombic,-3.304,0.228,0,14.825,3.118,5.553,5.62,9.501,90,90,90,-5.958,0.8296296296,0.5410655127,5.986000000000001,5.17,1.61,1.1,0.5443599822999999
152,152,152,AlBaO3,Al,Ba,0,not balanced,not balanced,0.54,1.35,orthorhombic,-2.722,0.217,-,15.338,0.369,5.405,6.293,9.019,90,90,90,-9.71,1.0,0.4949747468,5.986000000000001,5.212000000000001,1.61,0.89,0.4988316929
154,154,154,AlBiO3,Al,Bi,0,not balanced,not balanced,0.54,0.9,orthorhombic,-2.132,0.257,-,13.078,1.156,5.494,5.499,8.657,90,90,90,-4.525,0.6666666667,0.5939696962,5.986000000000001,7.289,1.61,2.02,0.5964291979999999
156,156,156,AlCdO3,Al,Cd,0,not balanced,not balanced,0.54,0.95,orthorhombic,-1.93,0.197,-,11.712,0.211,5.236,5.506,8.124,90,90,90,-7.376,0.7037037037,0.5810573115,5.986000000000001,8.993,1.61,1.69,0.5837392150999999
157,157,157,AlCeO3,Al,Ce,0,3,3,0.54,1.01,orthorhombic,-3.19,0.289,0,13.608,2.937,5.557,5.574,8.786,90,90,90,-7.106,0.7481481481000001,0.566284668,5.986000000000001,5.54,1.61,1.12,0.5692062886
162,162,162,AlDyO3,Al,Dy,0,3,3,0.54,0.91,rhombohedral,-3.343,0.244,0,13.125,3.763,5.993,5.993,5.993,54.1,54.1,54.1,-6.424,0.6740740741,0.5913415117,5.986000000000001,5.94,1.61,1.22,0.5938472535
163,163,163,AlErO3,Al,Er,0,3,3,0.54,0.89,orthorhombic,-3.36,0.242,0,11.774,3.077,5.328,5.337,8.281,90,90,90,-6.199,0.6592592593,0.5966213466,5.986000000000001,6.101,1.61,1.24,0.5990336924
167,167,167,AlGdO3,Al,Gd,0,3,3,0.54,0.94,rhombohedral,-3.316,0.253,0,13.622,3.807,6.086,6.086,6.086,53.8,53.8,53.8,-6.621,0.6962962963,0.5835946797,5.986000000000001,6.15,1.61,1.2,0.5862338271
171,171,171,AlHoO3,Al,Ho,0,3,3,0.54,0.9,rhombohedral,-3.357,0.238,0,12.949,3.715,5.966,5.966,5.966,54.1,54.1,54.1,-6.308,0.6666666667,0.5939696962,5.986000000000001,6.018,1.61,1.23,0.5964291979999999
172,172,172,AlInO3,Al,In,0,3,3,0.54,0.8,orthorhombic,-2.354,0.201,-,11.102,1.524,5.22,5.226,8.141,90,90,90,-5.702,0.5925925926,0.6215961937,5.986000000000001,5.7860000000000005,1.61,1.78,0.6235396161
174,174,174,AlKO3,Al,K,0,not balanced,not balanced,0.54,1.38,orthorhombic,-1.982,0.285,-,14.152,2.012,5.624,6.743,7.464,90,90,90,-16.374,1.0222222222,0.4895354639,5.986000000000001,4.341,1.61,0.82,0.4934486171
175,175,175,AlLaO3,Al,La,0,3,3,0.54,1.03,orthorhombic,-3.335,0.226,0,13.793,3.69,5.461,5.529,9.137,90,90,90,-6.662,0.762962963,0.5615259733,5.986000000000001,5.58,1.61,1.1,0.5645214632
177,177,177,AlLuO3,Al,Lu,0,3,3,0.54,0.86,rhombohedral,-3.397,0.225,0,12.134,3.815,5.786,5.786,5.786,55.1,55.1,55.1,-5.759,0.637037037,0.6047202789,5.986000000000001,5.4259,1.61,1.27,0.606985467
181,181,181,AlNaO3,Al,Na,0,not balanced,not balanced,0.54,1.02,orthorhombic,-1.971,0.321,-,11.427,2.09,5.461,5.978,7.002,90,90,90,-11.819,0.7555555556,0.5638952812,5.986000000000001,5.138999999999999,1.61,0.93,0.5668541965
183,183,183,AlNdO3,Al,Nd,0,3,3,0.54,0.98,orthorhombic,-3.233,0.28,0,13.108,3.042,5.495,5.509,8.66,90,90,90,-7.031,0.7259259259,0.5735758868999999,5.986000000000001,5.53,1.61,1.14,0.5763811578
185,185,185,AlNpO3,Al,Np,0,element not in BV,element not in BV,0.54,0.86,orthorhombic,-3.234,0.268,0.8,13.507,1.468,5.448,5.46,9.082,90,90,90,-1.407,0.637037037,0.6047202789,5.986000000000001,6.19,1.61,1.36,0.606985467
187,187,187,AlPaO3,Al,Pa,0,element not in BV,element not in BV,0.54,0.91,cubic,-2.259,0.768,0,16.861,2.193,4.385,4.385,4.385,90,90,90,5.433,0.6740740741,0.5913415117,5.986000000000001,5.89,1.61,1.5,0.5938472535
191,191,191,AlPrO3,Al,Pr,0,3,3,0.54,0.99,orthorhombic,-3.213,0.286,0,13.347,2.935,5.529,5.537,8.72,90,90,90,-7.082,0.7333333333,0.5711247079,5.986000000000001,5.46,1.61,1.13,0.5739695211
193,193,193,AlPuO3,Al,Pu,0,element not in BV,element not in BV,0.54,0.83,orthorhombic,-3.306,0.216,1,13.362,1.93,5.412,5.435,9.086,90,90,90,-2.763,0.6148148148,0.6130421175999999,5.986000000000001,6.06,1.61,1.28,0.6151511908
201,201,201,AlSmO3,Al,Sm,0,3,3,0.54,0.96,orthorhombic,-3.267,0.27,0,12.728,3.072,5.45,5.462,8.551,90,90,90,-6.818,0.7111111111,0.5785419118999999,5.986000000000001,5.64,1.61,1.17,0.5812657439
203,203,203,AlSrO3,Al,Sr,0,not balanced,not balanced,0.54,1.18,orthorhombic,-2.765,0.194,-,13.698,0.445,5.259,5.926,8.791,90,90,90,-10.222,0.8740740740999999,0.5282339195,5.986000000000001,5.695,1.61,0.95,0.5317004479
210,210,210,AlTlO3,Al,Tl,0,3,3,0.54,0.89,orthorhombic,-1.911,0.19,-,12.152,0.638,5.285,5.41,8.5,90,90,90,-6.702,0.6592592593,0.5966213466,5.986000000000001,6.108,1.61,1.62,0.5990336924
211,211,211,AlTmO3,Al,Tm,0,3,3,0.54,0.88,rhombohedral,-3.378,0.237,0,12.404,3.756,5.828,5.828,5.828,55.1,55.1,55.1,-6.024,0.6518518519,0.5992967787,5.986000000000001,6.184,1.61,1.25,0.6016610331000001
213,213,213,AlVO3,Al,V,0,3,3,0.54,0.64,orthorhombic,-2.799,0.149,0.4,9.609,1.47,5.004,5.03,7.636,90,90,90,-0.475,0.47407407409999996,0.6715737770999999,5.986000000000001,6.74,1.61,1.63,0.6724446840999999
215,215,215,AlYO3,Al,Y,0,3,3,0.54,0.9,rhombohedral,-3.324,0.236,0,13.18,3.81,6.003,6.003,6.003,54.1,54.1,54.1,-6.49,0.6666666667,0.5939696962,5.986000000000001,6.38,1.61,1.22,0.5964291979999999
219,219,219,AsAcO3,As,Ac,0,element not in BV,element not in BV,0.52,1.12,orthorhombic,-2.622,-0.109,0,16.601,2.97,5.879,6.527,8.653,90,90,90,-2.465,0.8296296296,0.5353399517,9.81,5.17,2.18,1.1,0.5387480238
224,224,224,AsBO3,As,B,0,3,3,0.58,0.27,cubic,-0.852,1.183,-,7.706,0.923,3.377,3.377,3.377,90,90,90,2.629,0.2,0.8424173381000001,9.81,8.298,2.18,2.04,0.8383661238
247,247,247,AsKO3,As,K,0,not balanced,not balanced,0.52,1.38,orthorhombic,-1.727,-0.173,-,15.098,3.052,4.836,5.454,11.449,90,90,90,-9.214,1.0222222222,0.48435519439999997,9.81,4.341,2.18,0.82,0.4883615179
254,254,254,AsNaO3,As,Na,0,not balanced,not balanced,0.52,1.02,orthorhombic,-1.63,0.131,-,12.895,2.122,5.116,5.131,9.824,90,90,90,-9.344,0.7555555556,0.5579281354,9.81,5.138999999999999,2.18,0.93,0.5610103388000001
267,267,267,AsRbO3,As,Rb,0,not balanced,not balanced,0.52,1.52,orthorhombic,-1.728,-0.199,-,16.722,3.147,4.944,5.705,11.859,90,90,90,-14.179,1.1259259259,0.4607281118,9.81,4.177,2.18,0.82,0.46494692460000003
320,320,320,AuKO3,Au,K,0,element not in BV,element not in BV,0.93,1.38,orthorhombic,-0.361,0.446,-,18.928,0.666,6.188,6.317,9.684,90,90,90,-9.922,1.0222222222,0.5905507184000001,9.225,4.341,2.54,0.82,0.5926470504
328,328,328,AuNbO3,Au,Nb,0,element not in BV,element not in BV,0.93,0.68,rhombohedral,-1.71,0.319,0,12.368,0.634,5.718,5.718,5.718,57.2,57.2,57.2,3.792,0.5037037037,0.7941888971,9.225,6.88,2.54,1.6,0.792095577
333,333,333,AuPaO3,Au,Pa,0,element not in BV,element not in BV,0.93,0.91,rhombohedral,-2.093,-0.14,0,15.048,1.537,6.121,6.121,6.121,56.9,56.9,56.9,2.677,0.6740740741,0.7133643633,9.225,5.89,2.54,1.5,0.7132289178
350,350,350,AuTaO3,Au,Ta,0,element not in BV,element not in BV,0.93,0.68,rhombohedral,-1.935,0.303,0,12.233,1.182,5.669,5.669,5.669,57.8,57.8,57.8,3.741,0.5037037037,0.7941888971,9.225,7.89,2.54,1.5,0.792095577
358,358,358,AuUO3,Au,U,0,element not in BV,element not in BV,0.93,0.85,orthorhombic,-2.267,0.237,0.2,14.996,1.753,5.813,6.082,8.484,90,90,90,2.881,0.6296296296,0.732819755,9.225,6.05,2.54,1.38,0.7322483556
401,401,401,BNbO3,B,Nb,0,1,5,0.27,0.64,cubic,-1.19,1.383,-0.001,12.499,1.744,3.968,3.968,3.968,90,90,90,4.31,0.47407407409999996,0.5756346661,8.298,6.88,2.04,1.6,0.5788570219
406,406,406,BPaO3,B,Pa,0,element not in BV,element not in BV,0.27,0.91,cubic,-1.378,1.368,0,16.389,1.515,4.344,4.344,4.344,90,90,90,4.028,0.6740740741,0.5068641529,8.298,5.89,2.04,1.5,0.5111984089
423,423,423,BTaO3,B,Ta,0,1,5,0.27,0.64,cubic,-1.443,1.307,0,12.282,2.039,3.945,3.945,3.945,90,90,90,5.114,0.47407407409999996,0.5756346661,8.298,7.89,2.04,1.5,0.5788570219
431,431,431,BUO3,B,U,0,1,5,0.27,0.76,cubic,-1.577,1.601,0.2,15.778,1.741,4.289,4.289,4.289,90,90,90,4.164,0.5629629629999999,0.5428971495,8.298,6.05,2.04,1.38,0.5466982984000001
451,451,451,BaCrO3,Ba,Cr,0,2,4,1.61,0.55,orthorhombic,-2.461,0.123,0.4,12.39,0.258,5.607,5.607,7.882,90,90,90,1.778,0.40740740740000003,1.1015979328,5.212000000000001,6.766,0.89,1.66,1.0914827751
461,461,461,BaHfO3,Ba,Hf,1,2,4,1.61,0.71,cubic,-3.625,-0.247,0,14.549,3.687,4.174,4.174,4.174,90,90,90,6.962,0.5259259259000001,1.0160369283,5.212000000000001,6.65,0.89,1.3,1.0087163087
477,477,477,BaNpO3,Ba,Np,1,element not in BV,element not in BV,1.61,0.86,orthorhombic,-3.389,-0.089,0.6,17.299,2.57,6.233,6.273,8.849,90,90,90,4.436,0.637037037,0.9470751458,5.212000000000001,6.19,0.89,1.36,0.9417661112000001
479,479,479,BaPaO3,Ba,Pa,1,element not in BV,element not in BV,1.61,0.91,orthorhombic,-3.153,-0.219,0.2,17.997,2.695,6.316,6.361,8.959,90,90,90,6.391,0.6740740741,0.9261221559,5.212000000000001,5.89,0.89,1.5,0.9213815634
480,480,480,BaPbO3,Ba,Pb,1,2,4,1.61,0.78,orthorhombic,-1.947,-0.066,-,16.081,0.618,6.088,6.12,8.633,90,90,90,1.793,0.5777777778000001,0.9826460432999999,5.212000000000001,7.416,0.89,2.33,0.9763263354999999
484,484,484,BaPtO3,Ba,Pt,0,element not in BV,element not in BV,1.61,0.67,orthorhombic,-1.587,0.019,0,13.759,0.257,5.743,5.83,8.218,90,90,90,1.235,0.49629629630000005,1.0361564714,5.212000000000001,9.0,0.89,2.28,1.0282084112999998
485,485,485,BaPuO3,Ba,Pu,1,element not in BV,element not in BV,1.61,0.83,rhombohedral,-3.3,0,0.8,17.022,2.12,6.197,6.197,6.197,60.5,60.5,60.5,4.205,0.6148148148,0.9601082901000001,5.212000000000001,6.06,0.89,1.28,0.9544356104999999
492,492,492,BaSiO3,Ba,Si,0,not balanced,not balanced,1.61,0.4,cubic,-2.68,0.524,-,11.084,1.289,3.813,3.813,3.813,90,90,90,4.872,0.2962962963,1.1960206127,5.212000000000001,8.151,0.89,1.9,1.182439673
494,494,494,BaSnO3,Ba,Sn,1,2,4,1.61,0.69,cubic,-2.443,-0.052,-,14.338,0.883,4.154,4.154,4.154,90,90,90,4.152,0.5111111111,1.0259980747,5.212000000000001,7.343999999999999,0.89,1.96,1.0183690964
499,499,499,BaTeO3,Ba,Te,0,2,4,1.61,0.97,tetragonal,-2.056,0.129,-,16.187,0.743,4.249,4.249,4.483,90,90,90,3.391,0.7185185184999999,0.9021707207999999,5.212000000000001,9.009,0.89,2.1,0.8980554478
500,500,500,BaThO3,Ba,Th,1,2,4,1.61,0.94,orthorhombic,-3.62,-0.004,0,18.557,4.363,6.369,6.443,9.045,90,90,90,6.151,0.6962962963,0.9139895512,5.212000000000001,6.08,0.89,1.3,0.9095689792
501,501,501,BaTiO3,Ba,Ti,1,2,4,1.61,0.61,tetragonal,-3.288,-0.03,0,13.029,1.68,3.987,3.987,4.099,90,90,90,5.357,0.4518518519,1.0678755470999999,5.212000000000001,6.82,0.89,1.54,1.0589011997
504,504,504,BaUO3,Ba,U,1,2,4,1.61,0.89,orthorhombic,-3.46,-0.094,0.4,17.58,2.645,6.256,6.32,8.893,90,90,90,5.448,0.6592592593,0.9343911037,5.212000000000001,6.05,0.89,1.38,0.9294285639000001
510,510,510,BaZrO3,Ba,Zr,1,2,4,1.61,0.72,cubic,-3.477,-0.096,0,15.082,3.108,4.225,4.225,4.225,90,90,90,6.582,0.5333333333,1.0111285373,5.212000000000001,6.84,0.89,1.33,1.0039582129
520,520,520,BeCaO3,Be,Ca,0,not balanced,not balanced,0.45,1.0,orthorhombic,-2.398,0.093,-,10.423,2.65,5.074,5.731,7.168,90,90,90,-9.03,0.7407407407,0.5416137047,9.322000000000001,6.1129999999999995,1.57,1,0.5450614772
532,532,532,BeGdO3,Be,Gd,0,not balanced,not balanced,0.45,0.94,orthorhombic,-2.873,0.21,0,10.575,0.238,4.741,5.537,8.056,90,90,90,-5.439,0.6962962963,0.5558044568,9.322000000000001,6.15,1.57,1.2,0.5590374125
540,540,540,BeLaO3,Be,La,0,not balanced,not balanced,0.45,1.03,orthorhombic,-2.872,0.171,0,11.458,0.262,4.859,5.637,8.366,90,90,90,-5.623,0.762962963,0.5347866412,9.322000000000001,5.58,1.57,1.1,0.5383323231
565,565,565,BeSiO3,Be,Si,0,2,4,0.45,0.4,cubic,-1.794,1.243,-,8.185,0.352,3.446,3.446,3.446,90,90,90,4.114,0.2962962963,0.7273098320999999,9.322000000000001,8.151,1.57,1.9,0.7267486362000001
585,585,585,BiAgO3,Bi,Ag,0,3,3,1.38,0.75,orthorhombic,-0.816,0.065,-,13.495,0.357,5.78,6.05,7.719,90,90,90,-0.274,0.5555555556,0.9192388155,7.289,7.5760000000000005,2.02,1.93,0.9143055123999999
586,586,586,BiAlO3,Bi,Al,1,3,3,1.38,0.54,orthorhombic,-2.319,0.069,-,10.885,2.652,5.335,5.391,7.569,90,90,90,4.691,0.4,1.0213764617,7.289,5.986000000000001,2.02,1.61,1.0132767276999999