,Unnamed: 0,Unnamed: 0.1,Chemical formula,A,B,In literature,Valence A,Valence B,Radius A [ang],Radius B [ang],Lowest distortion,Formation energy [eV/atom],Stability [eV/atom],Magnetic moment [mu_B],Volume per atom [A^3/atom],Band gap [eV],a [ang],b [ang],c [ang],alpha [deg],beta [deg],gamma [deg],Vacancy energy [eV/O atom],Octahedral Factor,Tolerance Factor,A Ionization Energy,B Ionization Energy,A Electronegativity,B Electronegativity,Goldschmidt Tolerance Factor
4234,4234,4234,TaAcO3,Ta,Ac,0,element not in BV,element not in BV,0.74,1.12,rhombohedral,-2.889,0.216,0,17.361,1.223,6.155,6.155,6.155,62.4,62.4,62.4,-6.053,0.8296296296,0.5983211225,7.89,5.17,1.5,1.1,0.6004795682
4235,4235,4235,TaAgO3,Ta,Ag,0,not balanced,not balanced,0.74,0.95,orthorhombic,-2.019,0.246,0,14.157,1.609,5.492,5.917,8.713,90,90,90,-11.587,0.7037037037,0.6425448577,7.89,7.5760000000000005,1.5,1.93,0.6439185156
4240,4240,4240,TaBaO3,Ta,Ba,0,not balanced,not balanced,0.74,1.35,orthorhombic,-2.791,0.359,-0.001,17.807,0.304,5.529,6.608,9.748,90,90,90,-3.556,1.0,0.5473530269,7.89,5.212000000000001,1.5,0.89,0.5502576406
4248,4248,4248,TaCsO3,Ta,Cs,0,not balanced,not balanced,0.74,1.67,rhombohedral,-2.037,0.808,0,23.8,1.439,7.021,7.021,7.021,58.8,58.8,58.8,-,1.2370370370000001,0.4893553552,7.89,3.8939999999999997,1.5,0.79,0.4929017954
4262,4262,4262,TaKO3,Ta,K,0,not balanced,not balanced,0.74,1.38,orthorhombic,-2.684,0.236,0,17.643,3.635,5.769,5.851,10.454,90,90,90,-21.785,1.0222222222,0.5413381585,7.89,4.341,1.5,0.82,0.5443196085
4264,4264,4264,TaLiO3,Ta,Li,0,not balanced,not balanced,0.74,0.76,orthorhombic,-2.828,0.138,0,9.486,2.991,4.748,5.105,7.828,90,90,90,-2.44,0.5629629629999999,0.7004043472,7.89,5.392,1.5,0.98,0.7005594962
4269,4269,4269,TaNaO3,Ta,Na,0,not balanced,not balanced,0.74,1.02,orthorhombic,-2.633,0.298,0,12.859,2.958,5.468,5.632,8.351,90,90,90,-11.349,0.7555555556,0.6235667395000001,7.89,5.138999999999999,1.5,0.93,0.6252927734
4273,4273,4273,TaNpO3,Ta,Np,0,element not in BV,element not in BV,0.74,0.86,rhombohedral,-2.79,0.313,0.8,15.29,0.55,5.749,5.749,5.749,66.4,66.4,66.4,-0.811,0.637037037,0.6687118428000001,7.89,6.19,1.5,1.36,0.6695612884000001
4281,4281,4281,TaPuO3,Ta,Pu,0,element not in BV,element not in BV,0.74,0.83,rhombohedral,-2.83,0.301,1,15.116,0.779,5.716,5.716,5.716,66.7,66.7,66.7,-8.643,0.6148148148,0.6779142994,7.89,6.06,1.5,1.28,0.6785688393000001
4282,4282,4282,TaRbO3,Ta,Rb,0,not balanced,not balanced,0.74,1.52,orthorhombic,-2.689,0.183,0,19.597,3.593,5.93,5.984,11.045,90,90,90,-14.916,1.1259259259,0.5149314191,7.89,4.177,1.5,0.82,0.5182220931
4291,4291,4291,TaSrO3,Ta,Sr,0,not balanced,not balanced,0.74,1.18,orthorhombic,-2.801,0.365,0,15.651,0.31,5.577,6.314,8.889,90,90,90,-17.169,0.8740740740999999,0.5841316888,7.89,5.695,1.5,0.95,0.5865149270000001
4298,4298,4298,TaTlO3,Ta,Tl,0,not balanced,not balanced,0.74,1.2,orthorhombic,-2.274,0.183,0,18.318,2.48,5.884,6.333,9.831,90,90,90,-7.196,0.8888888889,0.5795502638000001,7.89,6.108,1.5,1.62,0.5820032736999999
4380,4380,4380,TcAcO3,Tc,Ac,0,element not in BV,element not in BV,0.6,1.12,rhombohedral,-2.235,0.32,0.4,16.243,0.516,5.908,5.908,5.908,65.2,65.2,65.2,-6.497,0.8296296296,0.5582421957,7.28,5.17,1.9,1.1,0.5611958581000001
4389,4389,4389,TcCaO3,Tc,Ca,0,element not in BV,element not in BV,0.6,1.0,rhombohedral,-2.037,0.285,0.6,14.506,0.538,6.06,6.06,6.06,56.6,56.6,56.6,-,0.7407407407,0.5867481801,7.28,6.1129999999999995,1.9,1,0.589255651
4391,4391,4391,TcCeO3,Tc,Ce,0,element not in BV,element not in BV,0.6,0.94,rhombohedral,-2.14,0.386,0.4,15.498,0.354,5.933,5.933,5.933,62.2,62.2,62.2,-6.743,0.6962962963,0.6021214949,7.28,5.54,1.9,1.12,0.6043647702
4403,4403,4403,TcHfO3,Tc,Hf,0,element not in BV,element not in BV,0.6,0.71,cubic,-1.925,0.888,1,13.507,0.925,4.072,4.072,4.072,90,90,90,1.949,0.5259259259000001,0.6693486521,7.28,6.65,1.9,1.3,0.6702433945
4409,4409,4409,TcLaO3,Tc,La,0,element not in BV,element not in BV,0.6,1.03,rhombohedral,-2.237,0.384,0.4,15.148,0.323,5.756,5.756,5.756,65.7,65.7,65.7,-6.403,0.762962963,0.5793521947,7.28,5.58,1.9,1.1,0.5819808899000001
4436,4436,4436,TcSnO3,Tc,Sn,0,element not in BV,element not in BV,0.6,0.69,cubic,-0.756,0.927,1,13.115,0.571,4.033,4.033,4.033,90,90,90,2.883,0.5111111111,0.6759108937999999,7.28,7.343999999999999,1.9,1.96,0.6766572069
4443,4443,4443,TcTiO3,Tc,Ti,0,element not in BV,element not in BV,0.6,0.71,cubic,-1.681,0.775,1,11.572,0.562,3.868,3.868,3.868,90,90,90,1.36,0.5259259259000001,0.6693486521,7.28,6.82,1.9,1.54,0.6702433945
4452,4452,4452,TcZrO3,Tc,Zr,0,element not in BV,element not in BV,0.6,0.72,cubic,-1.736,0.954,1,14.06,0.841,4.127,4.127,4.127,90,90,90,3.573,0.5333333333,0.6661150836999999,7.28,6.84,1.9,1.33,0.667081869
4459,4459,4459,TeBaO3,Te,Ba,0,not balanced,not balanced,0.77,1.35,orthorhombic,-2.151,0.034,-,19.713,3.553,6.303,6.869,9.105,90,90,90,-11.292,1.0,0.5552097689,9.009,5.212000000000001,2.1,0.89,0.5579715328
4467,4467,4467,TeCsO3,Te,Cs,0,not balanced,not balanced,0.77,1.67,orthorhombic,-1.388,0.176,-,23.232,0.302,6.235,6.401,11.642,90,90,90,-11.316,1.2370370370000001,0.4963795947,9.009,3.8939999999999997,2.1,0.79,0.49981163359999997
4477,4477,4477,TeHgO3,Te,Hg,0,not balanced,not balanced,0.77,1.11,orthorhombic,-0.966,0.014,-,15.598,2.147,6.005,6.232,8.336,90,90,90,-6.062,0.8222222222,0.6093765757,9.009,10.437000000000001,2.1,2,0.6113233925
4494,4494,4494,TePaO3,Te,Pa,0,element not in BV,element not in BV,0.77,0.91,orthorhombic,-2.03,0.219,0,17.509,0.335,5.795,6.075,9.946,90,90,90,2.508,0.6740740741,0.6633037062,9.009,5.89,2.1,1.5,0.6642518248
4495,4495,4495,TePbO3,Te,Pb,0,2,4,0.97,0.78,orthorhombic,-1.353,0.022,-,16.626,1.71,6.24,6.604,8.069,90,90,90,0.913,0.5777777778000001,0.7701820340000001,9.009,7.416,2.1,2.33,0.7687353539
4501,4501,4501,TeRbO3,Te,Rb,0,not balanced,not balanced,0.77,1.52,orthorhombic,-1.372,0.101,-,20.896,0.232,6.066,6.331,10.882,90,90,90,-12.686,1.1259259259,0.5223227790999999,9.009,4.177,2.1,0.82,0.5254868888
4510,4510,4510,TeSrO3,Te,Sr,0,not balanced,not balanced,0.77,1.18,orthorhombic,-2.2,0.01,-,17.044,3.492,5.956,6.606,8.664,90,90,90,-10.574,0.8740740740999999,0.5925163542,9.009,5.695,2.1,0.95,0.5947370989
4532,4532,4532,ThBaO3,Th,Ba,0,4,2,1.21,1.35,orthorhombic,-3.345,0.275,0,19.059,2.709,6.799,6.829,8.21,90,90,90,-2.473,1.0,0.6704419851,6.08,5.212000000000001,1.3,0.89,0.6711086178
4533,4533,4533,ThBeO3,Th,Be,0,4,2,1.21,0.45,orthorhombic,-3.359,0.369,0,9.908,3.063,5.182,5.221,7.325,90,90,90,5.796,0.3333333333,1.0056629777,6.08,9.322000000000001,1.3,1.57,0.9975938913
4535,4535,4535,ThCaO3,Th,Ca,0,4,2,1.21,1.0,cubic,-2.698,1.122,0,14.304,0.815,4.151,4.151,4.151,90,90,90,-,0.7407407407,0.7702950467,6.08,6.1129999999999995,1.3,1,0.7689786245
4538,4538,4538,ThCoO3,Th,Co,0,4,2,1.21,0.75,orthorhombic,-2.947,0.093,0.6,12.397,1.864,5.409,5.933,7.727,90,90,90,3.147,0.5555555556,0.8619968379999999,6.08,7.86,1.3,1.88,0.8583947437
4539,4539,4539,ThCrO3,Th,Cr,0,4,2,1.21,0.8,orthorhombic,-3.282,0.088,0.8,13.172,2.02,5.486,6.329,7.588,90,90,90,4.11,0.5925925926,0.8419503999,6.08,6.766,1.3,1.66,0.8388857721999999
4558,4558,4558,ThMgO3,Th,Mg,0,4,2,1.21,0.72,orthorhombic,-3.599,0.122,0,12.347,5.339,5.46,5.794,7.806,90,90,90,5.269,0.5333333333,0.8744895457999999,6.08,7.646,1.3,1.31,0.8705418390999999
4564,4564,4564,ThNiO3,Th,Ni,0,4,2,1.21,0.69,orthorhombic,-2.942,0.096,0.4,12.128,3.389,5.38,5.846,7.711,90,90,90,4.005,0.5111111111,0.8873496862000001,6.08,7.635,1.3,1.91,0.883037655
4593,4593,4593,ThVO3,Th,V,0,4,2,1.21,0.79,orthorhombic,-3.392,0.055,0.6,12.961,2.332,5.476,6.015,7.869,90,90,90,3.91,0.5851851852000001,0.8458847476000001,6.08,6.74,1.3,1.63,0.8427163009
4599,4599,4599,TiAcO3,Ti,Ac,0,element not in BV,element not in BV,0.74,1.12,rhombohedral,-3.156,0.287,0.2,16.959,0.598,6.304,6.304,6.304,58.1,58.1,58.1,-7.753,0.8296296296,0.5983211225,6.82,5.17,1.54,1.1,0.6004795682
4605,4605,4605,TiBaO3,Ti,Ba,0,not balanced,not balanced,0.74,1.35,orthorhombic,-3.152,0.135,0,17.499,2.986,5.85,5.95,10.054,90,90,90,-13.843,1.0,0.5473530269,6.82,5.212000000000001,1.54,0.89,0.5502576406
4608,4608,4608,TiCaO3,Ti,Ca,0,not balanced,not balanced,0.74,1.0,orthorhombic,-3.201,0.167,0,13.209,2.645,5.42,5.54,8.799,90,90,90,-,0.7407407407,0.6288736905,6.82,6.1129999999999995,1.54,1,0.6305035466
4609,4609,4609,TiCdO3,Ti,Cd,0,not balanced,not balanced,0.74,0.95,orthorhombic,-2.313,0.168,0,12.529,2.417,5.395,5.506,8.436,90,90,90,-7.258,0.7037037037,0.6425448577,6.82,8.993,1.54,1.69,0.6439185156
4610,4610,4610,TiCeO3,Ti,Ce,0,2,4,0.86,0.87,rhombohedral,-3.075,0.288,0.2,15.697,0.625,6.121,6.121,6.121,58.6,58.6,58.6,-7.58,0.6444444443999999,0.7039216155,6.82,5.54,1.54,1.12,0.7039917733
4623,4623,4623,TiHgO3,Ti,Hg,0,not balanced,not balanced,0.74,1.11,orthorhombic,-1.975,0.152,0,13.864,2.063,5.301,5.832,8.969,90,90,90,-8.241,0.8222222222,0.6007533222,6.82,10.437000000000001,1.54,2,0.602871917
4641,4641,4641,TiPbO3,Ti,Pb,0,2,4,0.86,0.78,orthorhombic,-2.367,0.15,0,15.451,1.808,5.589,5.774,9.576,90,90,90,0.001,0.5777777778000001,0.7336647824,6.82,7.416,1.54,2.33,0.7330556539
4646,4646,4646,TiPuO3,Ti,Pu,0,element not in BV,element not in BV,0.74,0.83,orthorhombic,-3.178,0.26,1.2,13.728,0.39,5.652,5.906,8.224,90,90,90,-,0.6148148148,0.6779142994,6.82,6.06,1.54,1.28,0.6785688393000001
4655,4655,4655,TiSnO3,Ti,Sn,0,2,4,0.86,0.69,orthorhombic,-2.316,0.25,0,14.526,1.051,5.463,5.791,9.182,90,90,90,1.902,0.5111111111,0.7660323462999999,6.82,7.343999999999999,1.54,1.96,0.7646226438
4656,4656,4656,TiSrO3,Ti,Sr,0,not balanced,not balanced,0.74,1.18,orthorhombic,-3.182,0.171,0.001,15.27,2.843,5.607,5.726,9.512,90,90,90,-11.834,0.8740740740999999,0.5841316888,6.82,5.695,1.54,0.95,0.5865149270000001
4674,4674,4674,TlAlO3,Tl,Al,0,3,3,0.98,0.54,orthorhombic,-2.028,0.073,-,10.447,1.01,5.208,5.326,7.533,90,90,90,-0.122,0.4,0.8717242329000001,6.108,5.986000000000001,1.62,1.61,0.8674815151
4685,4685,4685,TlCrO3,Tl,Cr,0,3,3,0.98,0.62,orthorhombic,-1.672,0.038,0.6,11.302,0.543,5.342,5.501,7.693,90,90,90,0.334,0.4592592593,0.836324264,6.108,6.766,1.62,1.66,0.8331258115000001
4686,4686,4686,TlCsO3,Tl,Cs,0,not balanced,not balanced,1.7,1.67,orthorhombic,-0.462,0.57,-,18.293,0.648,5.458,6.322,10.603,90,90,90,-1.57,1.2370370370000001,0.7141310206999999,6.108,3.8939999999999997,1.62,0.79,0.7140166193999999
4692,4692,4692,TlGaO3,Tl,Ga,0,3,3,0.98,0.62,orthorhombic,-1.454,0.065,-,11.272,0.558,5.316,5.457,7.772,90,90,90,-1.757,0.4592592593,0.836324264,6.108,5.999,1.62,1.81,0.8331258115000001
4693,4693,4693,TlGdO3,Tl,Gd,0,not balanced,not balanced,1.7,0.94,orthorhombic,-2.261,0.104,0.001,14.658,0.896,5.826,5.908,8.517,90,90,90,-3.09,0.6962962963,0.9417797740999999,6.108,6.15,1.62,1.2,0.9367653939
4697,4697,4697,TlHoO3,Tl,Ho,0,not balanced,not balanced,1.7,0.9,orthorhombic,-2.311,0.095,0,14.136,0.876,5.75,5.848,8.408,90,90,90,-3.018,0.6666666667,0.9585225256000001,6.108,6.018,1.62,1.23,0.9530569659
4701,4701,4701,TlLaO3,Tl,La,0,not balanced,not balanced,1.7,1.03,orthorhombic,-2.216,0.109,0,16.127,1.05,6.005,6.08,8.835,90,90,90,-2.779,0.762962963,0.9061662531999999,6.108,5.58,1.62,1.1,0.9020703793000001
4703,4703,4703,TlLuO3,Tl,Lu,0,not balanced,not balanced,1.7,0.86,orthorhombic,-2.366,0.083,0,13.522,0.931,5.649,5.772,8.295,90,90,90,-2.715,0.637037037,0.9758713495999999,6.108,5.4259,1.62,1.27,0.9699252307999999
4708,4708,4708,TlNbO3,Tl,Nb,0,1,5,1.7,0.64,tetragonal,-2.223,0.065,0,13.712,0.448,4.032,4.032,4.218,90,90,90,4.564,0.47407407409999996,1.0837566243999999,6.108,6.88,1.62,1.6,1.0745250106
4709,4709,4709,TlNdO3,Tl,Nd,0,not balanced,not balanced,1.7,0.98,orthorhombic,-2.164,0.115,0,15.638,1.014,5.955,6.036,8.702,90,90,90,-3.035,0.7259259259,0.9256118809999999,6.108,5.53,1.62,1.14,0.9210214377
4711,4711,4711,TlNpO3,Tl,Np,0,element not in BV,element not in BV,1.7,0.86,rhombohedral,-2.466,0.105,0.4,16.26,1.113,6.14,6.14,6.14,59.7,59.7,59.7,1.24,0.637037037,0.9758713495999999,6.108,6.19,1.62,1.36,0.9699252307999999
4713,4713,4713,TlPaO3,Tl,Pa,0,element not in BV,element not in BV,1.7,0.91,cubic,-2.563,-0.358,0,17.211,3.399,4.415,4.415,4.415,90,90,90,5.8,0.6740740741,0.9542812755,6.108,5.89,1.62,1.5,0.9489311782
4717,4717,4717,TlPrO3,Tl,Pr,0,not balanced,not balanced,1.7,0.92,orthorhombic,-2.14,0.117,0,15.939,0.971,5.998,6.07,8.756,90,90,90,-2.864,0.6814814815000001,0.9500773932,6.108,5.46,1.62,1.13,0.9448409576000001
4725,4725,4725,TlScO3,Tl,Sc,0,not balanced,not balanced,1.7,0.75,orthorhombic,-2.296,0.077,0,12.484,1.265,5.49,5.647,8.053,90,90,90,-2.416,0.5555555556,1.0269884203,6.108,6.54,1.62,1.36,1.0195493124
4727,4727,4727,TlSmO3,Tl,Sm,0,not balanced,not balanced,1.7,0.96,rhombohedral,-2.213,0.106,0,16.056,1.625,6.248,6.248,6.248,57,57,57,-3.007,0.7111111111,0.9336258366,6.108,5.64,1.62,1.17,0.9288267041
4730,4730,4730,TlTaO3,Tl,Ta,0,1,5,1.7,0.64,tetragonal,-2.422,0.034,0,13.343,0.836,4.037,4.037,4.093,90,90,90,5.427,0.47407407409999996,1.0837566243999999,6.108,7.89,1.62,1.5,1.0745250106
4737,4737,4737,TlTmO3,Tl,Tm,0,not balanced,not balanced,1.7,0.96,orthorhombic,-2.346,0.088,0,13.809,0.907,5.701,5.804,8.347,90,90,90,-2.758,0.7111111111,0.9336258366,6.108,6.184,1.62,1.25,0.9288267041
4738,4738,4738,TlUO3,Tl,U,0,1,5,1.7,0.76,cubic,-2.745,-0.108,0.2,16.675,2.695,4.369,4.369,4.369,90,90,90,4.183,0.5629629629999999,1.0221211766,6.108,6.05,1.62,1.38,1.0148291767
4741,4741,4741,TlYO3,Tl,Y,0,not balanced,not balanced,1.7,0.9,orthorhombic,-2.278,0.095,0,14.368,1.095,5.787,5.866,8.465,90,90,90,-3.435,0.6666666667,0.9585225256000001,6.108,6.38,1.62,1.22,0.9530569659
4745,4745,4745,TmAcO3,Tm,Ac,0,element not in BV,element not in BV,1.05,1.12,orthorhombic,-3.548,0.223,0,16.948,3.315,6.091,6.223,8.943,90,90,90,0.334,0.8296296296,0.6870673178,6.184,5.17,1.25,1.1,0.6874649262
4747,4747,4747,TmAlO3,Tm,Al,1,3,3,1.05,0.54,orthorhombic,-3.616,-0.017,0,9.976,6.198,5.108,5.339,7.316,90,90,90,6.232,0.4,0.8979133729000001,6.184,5.986000000000001,1.25,1.61,0.8929956773000001
4750,4750,4750,TmBO3,Tm,B,0,3,3,1.05,0.27,cubic,-2.537,0.74,0,8.012,3.153,3.422,3.422,3.422,90,90,90,5.493,0.2,1.0475656018000001,6.184,8.298,1.25,2.04,1.0373722239
4751,4751,4751,TmBaO3,Tm,Ba,0,not balanced,not balanced,1.05,1.35,orthorhombic,-2.861,0.282,0.201,18.032,0.645,6.429,6.76,8.299,90,90,90,-8.566,1.0,0.6285393611,6.184,5.212000000000001,1.25,0.89,0.6299678596
4757,4757,4757,TmCoO3,Tm,Co,0,3,3,1.05,0.61,orthorhombic,-2.566,0.027,0,10.493,1.392,5.113,5.544,7.404,90,90,90,2.096,0.4518518519,0.8658450381999999,6.184,7.86,1.25,1.88,0.8618963253
4758,4758,4758,TmCrO3,Tm,Cr,1,3,3,1.05,0.62,orthorhombic,-3.229,-0.022,0.6,10.864,2.496,5.209,5.541,7.528,90,90,90,4.031,0.4592592593,0.8614498856999999,6.184,6.766,1.25,1.66,0.8576295118
4760,4760,4760,TmCuO3,Tm,Cu,0,3,3,1.05,0.54,orthorhombic,-2.306,0.004,0,10.66,0.268,5.152,5.823,7.106,90,90,90,0.436,0.4,0.8979133729000001,6.184,7.726,1.25,1.9,0.8929956773000001
4761,4761,4761,TmDyO3,Tm,Dy,0,not balanced,not balanced,1.05,0.99,cubic,-2.811,1.08,0,15.37,1.006,4.252,4.252,4.252,90,90,90,0.065,0.7333333333,0.7252377243000001,6.184,5.94,1.25,1.22,0.7248584159
4762,4762,4762,TmErO3,Tm,Er,0,not balanced,not balanced,1.05,0.89,cubic,-2.914,1,0,14.878,1.306,4.206,4.206,4.206,90,90,90,0.816,0.6592592593,0.7576144084,6.184,6.101,1.25,1.24,0.7565116218000001
4764,4764,4764,TmFeO3,Tm,Fe,1,3,3,1.05,0.65,orthorhombic,-2.805,0.017,1,10.985,1.235,5.229,5.559,7.559,90,90,90,2.865,0.4814814815,0.8485281374,6.184,7.87,1.25,1.83,0.8450788361
4765,4765,4765,TmGaO3,Tm,Ga,0,3,3,1.05,0.62,orthorhombic,-2.997,0.019,0,10.799,4.07,5.206,5.526,7.508,90,90,90,4.273,0.4592592593,0.8614498856999999,6.184,5.999,1.25,1.81,0.8576295118
4766,4766,4766,TmGdO3,Tm,Gd,0,not balanced,not balanced,1.05,0.94,cubic,-2.694,1.169,0,15.965,0.673,4.306,4.306,4.306,90,90,90,-0.771,0.6962962963,0.7410726091,6.184,6.15,1.25,1.2,0.7403468436
4770,4770,4770,TmHoO3,Tm,Ho,0,not balanced,not balanced,1.05,0.9,cubic,-2.863,1.04,0,15.076,1.154,4.224,4.224,4.224,90,90,90,0.436,0.6666666667,0.7542472333,6.184,6.018,1.25,1.23,0.7532224408
4771,4771,4771,TmInO3,Tm,In,0,not balanced,not balanced,1.05,0.8,cubic,-2.065,0.823,0,13.593,1.289,4.081,4.081,4.081,90,90,90,2.513,0.5925925926,0.7893284999,6.184,5.7860000000000005,1.25,1.78,0.7874598245000001
4776,4776,4776,TmLuO3,Tm,Lu,0,not balanced,not balanced,1.05,0.86,cubic,-3.061,0.886,0,14.17,1.726,4.138,4.138,4.138,90,90,90,1.867,0.637037037,0.7678987669,6.184,5.4259,1.25,1.27,0.7665538115
4778,4778,4778,TmMnO3,Tm,Mn,0,2,4,1.09,0.53,orthorhombic,-2.981,0.043,0.8,11.019,0.411,5.22,5.688,7.422,90,90,90,3.296,0.39259259259999996,0.917734333,6.184,7.435,1.25,1.55,0.9122776606999999
4798,4798,4798,TmScO3,Tm,Sc,0,3,3,1.05,0.75,cubic,-3.241,0.629,0,12.507,2.748,3.969,3.969,3.969,90,90,90,4.911,0.5555555556,0.8081220356000001,6.184,6.54,1.25,1.36,0.8057728437
4800,4800,4800,TmSmO3,Tm,Sm,0,not balanced,not balanced,1.05,0.96,cubic,-2.537,1.279,0,16.736,0.355,4.374,4.374,4.374,90,90,90,-1.761,0.7111111111,0.734656396,6.184,5.64,1.25,1.17,0.7340727178
4802,4802,4802,TmSrO3,Tm,Sr,0,not balanced,not balanced,1.05,1.18,orthorhombic,-2.964,0.241,0.2,16.179,0.922,6.216,6.361,8.184,90,90,90,-4.547,0.8740740740999999,0.6707732312,6.184,5.695,1.25,0.95,0.6714773696999999
4809,4809,4809,TmTlO3,Tm,Tl,0,not balanced,not balanced,1.05,1.2,orthorhombic,-2.301,0.133,0,13.813,0.887,5.48,5.825,8.656,90,90,90,0.355,0.8888888889,0.6655122646,6.184,6.108,1.25,1.62,0.6663121592
4810,4810,4810,Tm2O3,Tm,Tm,0,not balanced,not balanced,1.05,0.96,cubic,-2.976,0.956,0,14.604,1.456,4.18,4.18,4.18,90,90,90,1.36,0.7111111111,0.734656396,6.184,6.184,1.25,1.25,0.7340727178
4812,4812,4812,TmVO3,Tm,V,1,2,4,1.09,0.58,orthorhombic,-3.293,-0.011,0.4,11.162,1.382,5.245,5.632,7.558,90,90,90,3.816,0.4296296296,0.8939588321999999,6.184,6.74,1.25,1.63,0.8892403459999999
4814,4814,4814,TmYO3,Tm,Y,0,not balanced,not balanced,1.05,0.9,cubic,-2.787,1.083,0,15.361,1.077,4.251,4.251,4.251,90,90,90,0.048,0.6666666667,0.7542472333,6.184,6.38,1.25,1.22,0.7532224408
4820,4820,4820,UAlO3,U,Al,0,3,3,1.03,0.54,orthorhombic,-3.392,-0.011,0.6,10.771,1.428,5.34,5.349,7.54,90,90,90,4.383,0.4,0.8904307615000001,6.05,5.986000000000001,1.38,1.61,0.8857059166
4824,4824,4824,UBaO3,U,Ba,0,not balanced,not balanced,1.17,1.35,orthorhombic,-3.22,0.24,0.4,18.953,1.23,5.856,6.008,10.773,90,90,90,-,1.0,0.6599663291,6.05,5.212000000000001,1.38,0.89,0.6608234282
4828,4828,4828,UCdO3,U,Cd,0,4,2,1.17,0.95,orthorhombic,-2.6,0.186,0.4,14.039,2.146,5.62,6.035,8.278,90,90,90,-0.036,0.7037037037,0.7747430820000001,6.05,8.993,1.38,1.69,0.7733040118000001
4831,4831,4831,UCrO3,U,Cr,0,3,3,1.03,0.62,rhombohedral,-2.959,0.16,1.2,11.898,0.418,5.471,5.471,5.471,61.2,61.2,61.2,4.983,0.4592592593,0.8542711367,6.05,6.766,1.38,1.66,0.8506284545999999
4832,4832,4832,UCsO3,U,Cs,0,not balanced,not balanced,1.17,1.67,tetragonal,-2.343,0.712,0.2,18.762,1.048,3.608,3.608,7.208,90,90,90,-,1.2370370370000001,0.590036122,6.05,3.8939999999999997,1.38,0.79,0.5919428103000001
4838,4838,4838,UGaO3,U,Ga,0,3,3,1.03,0.62,orthorhombic,-2.75,0.242,0.6,11.842,1.067,5.475,5.502,7.862,90,90,90,3.046,0.4592592593,0.8542711367,6.05,5.999,1.38,1.81,0.8506284545999999
4842,4842,4842,UHgO3,U,Hg,0,4,2,1.17,1.02,orthorhombic,-2.226,0.291,0.4,15.403,1.773,5.681,6.135,8.838,90,90,90,-2.345,0.7555555556,0.7518603748999999,6.05,10.437000000000001,1.38,2,0.7509357139
4846,4846,4846,UKO3,U,K,0,not balanced,not balanced,1.17,1.38,orthorhombic,-2.87,0.27,0.2,17.52,2.296,5.403,5.74,11.299,90,90,90,-3.13,1.0222222222,0.6527139518999999,6.05,4.341,1.38,0.82,0.6536922402
4848,4848,4848,ULiO3,U,Li,0,5,1,0.84,0.76,orthorhombic,-3.047,0.099,0.2,10.735,2.256,5.167,5.647,7.359,90,90,90,-2.292,0.5629629629999999,0.733916517,6.05,5.392,1.38,0.98,0.7332959212000001
4850,4850,4850,UMgO3,U,Mg,0,4,2,1.17,0.72,orthorhombic,-3.363,0.107,0.4,11.777,3.156,5.348,5.732,7.683,90,90,90,0.9,0.5333333333,0.8608256467000001,6.05,7.646,1.38,1.31,0.8572002017