,Chemical formula,A,B,In literature,Valence A,Valence B,Radius A [ang],Radius B [ang],Lowest distortion,Formation energy [eV/atom],Stability [eV/atom],Magnetic moment [mu_B],Volume per atom [A^3/atom],Band gap [eV],a [ang],b [ang],c [ang],alpha [deg],beta [deg],gamma [deg],Vacancy energy [eV/O atom],C,Anion Radii,Goldschmidt Tolerance Factor,A Electronegativity,B Electronegativity,C Electronegativity,A Ionization Energy,B Ionization Energy,C Ionization Energy
5262,ZrBaO3,Zr,Ba,False,not balanced,not balanced,0.89,1.35,orthorhombic,-3.166,0.311,0,18.714,3.438,6.082,6.18,9.958,90,90,90,-3.113,O,1.385,0.5881784012,1.33,0.89,3.44,6.84,5.212000000000001,13.618
5263,ZrBeO3,Zr,Be,False,4,2,0.89,0.45,cubic,-2.706,0.661,0,8.145,0.944,3.44,3.44,3.44,90,90,90,3.63,O,1.385,0.8766582709999999,1.33,1.57,3.44,6.84,9.322000000000001,13.618
5265,ZrCaO3,Zr,Ca,False,not balanced,not balanced,0.89,1.0,orthorhombic,-3.358,0.159,0,13.518,3.105,5.219,5.5,9.42,90,90,90,-,O,1.385,0.6744938898,1.33,1,3.44,6.84,6.1129999999999995,13.618
5284,ZrKO3,Zr,K,False,not balanced,not balanced,0.89,1.38,orthorhombic,-2.492,0.267,0.2,16.137,1.041,6.463,6.889,7.249,90,90,90,-11.897,O,1.385,0.5817967186999999,1.33,0.82,3.44,6.84,4.341,13.618
5288,ZrMgO3,Zr,Mg,False,not balanced,not balanced,0.89,0.72,cubic,-2.36,0.998,0,10.17,0.718,3.705,3.705,3.705,90,90,90,0.77,O,1.385,0.764212792,1.33,1.31,3.44,6.84,7.646,13.618
5304,ZrRbO3,Zr,Rb,False,not balanced,not balanced,0.89,1.52,orthorhombic,-2.464,0.201,0.2,17.128,1.244,6.546,7.221,7.247,90,90,90,-16.391,O,1.385,0.5537583226,1.33,0.82,3.44,6.84,4.177,13.618
5312,ZrSnO3,Zr,Sn,False,not balanced,not balanced,0.89,0.69,orthorhombic,-2.367,0.428,0,15.092,0.822,5.909,6.048,8.446,90,90,90,1.196,O,1.385,0.7752616517,1.33,1.96,3.44,6.84,7.343999999999999,13.618
5313,ZrSrO3,Zr,Sr,False,not balanced,not balanced,0.89,1.18,orthorhombic,-3.229,0.272,0,15.972,3.5,5.87,5.966,9.123,90,90,90,-10.761,O,1.385,0.6271609853,1.33,0.95,3.44,6.84,5.695,13.618