,Chemical formula,A,B,In literature,Valence A,Valence B,Radius A [ang],Radius B [ang],Lowest distortion,Formation energy [eV/atom],Stability [eV/atom],Magnetic moment [mu_B],Volume per atom [A^3/atom],Band gap [eV],a [ang],b [ang],c [ang],alpha [deg],beta [deg],gamma [deg],Vacancy energy [eV/O atom],C,Anion Radii,Goldschmidt Tolerance Factor,A Electronegativity,B Electronegativity,C Electronegativity,A Ionization Energy,B Ionization Energy,C Ionization Energy
4717,TlPrO3,Tl,Pr,False,not balanced,not balanced,1.7,0.92,orthorhombic,-2.14,0.117,0,15.939,0.971,5.998,6.07,8.756,90,90,90,-2.864,O,1.385,0.9463880347,1.62,1.13,3.44,6.108,5.46,13.618
4725,TlScO3,Tl,Sc,False,not balanced,not balanced,1.7,0.75,orthorhombic,-2.296,0.077,0,12.484,1.265,5.49,5.647,8.053,90,90,90,-2.416,O,1.385,1.021744459,1.62,1.36,3.44,6.108,6.54,13.618
4727,TlSmO3,Tl,Sm,False,not balanced,not balanced,1.7,0.96,rhombohedral,-2.213,0.106,0,16.056,1.625,6.248,6.248,6.248,57,57,57,-3.007,O,1.385,0.9302449552,1.62,1.17,3.44,6.108,5.64,13.618
4730,TlTaO3,Tl,Ta,False,1,5,1.7,0.64,tetragonal,-2.422,0.034,0,13.343,0.836,4.037,4.037,4.093,90,90,90,5.427,O,1.385,1.0772466270999999,1.62,1.5,3.44,6.108,7.89,13.618
4737,TlTmO3,Tl,Tm,False,not balanced,not balanced,1.7,0.96,orthorhombic,-2.346,0.088,0,13.809,0.907,5.701,5.804,8.347,90,90,90,-2.758,O,1.385,0.9302449552,1.62,1.25,3.44,6.108,6.184,13.618
4738,TlUO3,Tl,U,False,1,5,1.7,0.76,cubic,-2.745,-0.108,0.2,16.675,2.695,4.369,4.369,4.369,90,90,90,4.183,O,1.385,1.0169810816,1.62,1.38,3.44,6.108,6.05,13.618
4741,TlYO3,Tl,Y,False,not balanced,not balanced,1.7,0.9,orthorhombic,-2.278,0.095,0,14.368,1.095,5.787,5.866,8.465,90,90,90,-3.435,O,1.385,0.9546715186,1.62,1.22,3.44,6.108,6.38,13.618
4745,TmAcO3,Tm,Ac,False,element not in BV,element not in BV,1.05,1.12,orthorhombic,-3.548,0.223,0,16.948,3.315,6.091,6.223,8.943,90,90,90,0.334,O,1.385,0.6873473103,1.25,1.1,3.44,6.184,5.17,13.618
4747,TmAlO3,Tm,Al,True,3,3,1.05,0.54,orthorhombic,-3.616,-0.017,0,9.976,6.198,5.108,5.339,7.316,90,90,90,6.232,O,1.385,0.8944441622,1.25,1.61,3.44,6.184,5.986000000000001,13.618
4750,TmBO3,Tm,B,False,3,3,1.05,0.27,cubic,-2.537,0.74,0,8.012,3.153,3.422,3.422,3.422,90,90,90,5.493,O,1.385,1.0403655663,1.25,2.04,3.44,6.184,8.298,13.618
4751,TmBaO3,Tm,Ba,False,not balanced,not balanced,1.05,1.35,orthorhombic,-2.861,0.282,0.201,18.032,0.645,6.429,6.76,8.299,90,90,90,-8.566,O,1.385,0.6295447942,1.25,0.89,3.44,6.184,5.212000000000001,13.618
4757,TmCoO3,Tm,Co,False,3,3,1.05,0.61,orthorhombic,-2.566,0.027,0,10.493,1.392,5.113,5.544,7.404,90,90,90,2.096,O,1.385,0.8630601565,1.25,1.88,3.44,6.184,7.86,13.618
4758,TmCrO3,Tm,Cr,True,3,3,1.05,0.62,orthorhombic,-3.229,-0.022,0.6,10.864,2.496,5.209,5.541,7.528,90,90,90,4.031,O,1.385,0.8587556170999999,1.25,1.66,3.44,6.184,6.766,13.618
4760,TmCuO3,Tm,Cu,False,3,3,1.05,0.54,orthorhombic,-2.306,0.004,0,10.66,0.268,5.152,5.823,7.106,90,90,90,0.436,O,1.385,0.8944441622,1.25,1.9,3.44,6.184,7.726,13.618
4761,TmDyO3,Tm,Dy,False,not balanced,not balanced,1.05,0.99,cubic,-2.811,1.08,0,15.37,1.006,4.252,4.252,4.252,90,90,90,0.065,O,1.385,0.7249705314,1.25,1.22,3.44,6.184,5.94,13.618
4762,TmErO3,Tm,Er,False,not balanced,not balanced,1.05,0.89,cubic,-2.914,1,0,14.878,1.306,4.206,4.206,4.206,90,90,90,0.816,O,1.385,0.756837368,1.25,1.24,3.44,6.184,6.101,13.618
4764,TmFeO3,Tm,Fe,True,3,3,1.05,0.65,orthorhombic,-2.805,0.017,1,10.985,1.235,5.229,5.559,7.559,90,90,90,2.865,O,1.385,0.8460958290999999,1.25,1.83,3.44,6.184,7.87,13.618
4765,TmGaO3,Tm,Ga,False,3,3,1.05,0.62,orthorhombic,-2.997,0.019,0,10.799,4.07,5.206,5.526,7.508,90,90,90,4.273,O,1.385,0.8587556170999999,1.25,1.81,3.44,6.184,5.999,13.618
4766,TmGdO3,Tm,Gd,False,not balanced,not balanced,1.05,0.94,cubic,-2.694,1.169,0,15.965,0.673,4.306,4.306,4.306,90,90,90,-0.771,O,1.385,0.7405612956000001,1.25,1.2,3.44,6.184,6.15,13.618
4770,TmHoO3,Tm,Ho,False,not balanced,not balanced,1.05,0.9,cubic,-2.863,1.04,0,15.076,1.154,4.224,4.224,4.224,90,90,90,0.436,O,1.385,0.7535251694,1.25,1.23,3.44,6.184,6.018,13.618
4771,TmInO3,Tm,In,False,not balanced,not balanced,1.05,0.8,cubic,-2.065,0.823,0,13.593,1.289,4.081,4.081,4.081,90,90,90,2.513,O,1.385,0.7880114471999999,1.25,1.78,3.44,6.184,5.7860000000000005,13.618
4776,TmLuO3,Tm,Lu,False,not balanced,not balanced,1.05,0.86,cubic,-3.061,0.886,0,14.17,1.726,4.138,4.138,4.138,90,90,90,1.867,O,1.385,0.7669510076999999,1.25,1.27,3.44,6.184,5.4259,13.618
4778,TmMnO3,Tm,Mn,False,2,4,1.09,0.53,orthorhombic,-2.981,0.043,0.8,11.019,0.411,5.22,5.688,7.422,90,90,90,3.296,O,1.385,0.9138847433,1.25,1.55,3.44,6.184,7.435,13.618
4798,TmScO3,Tm,Sc,False,3,3,1.05,0.75,cubic,-3.241,0.629,0,12.507,2.748,3.969,3.969,3.969,90,90,90,4.911,O,1.385,0.8064660479000001,1.25,1.36,3.44,6.184,6.54,13.618
4800,TmSmO3,Tm,Sm,False,not balanced,not balanced,1.05,0.96,cubic,-2.537,1.279,0,16.736,0.355,4.374,4.374,4.374,90,90,90,-1.761,O,1.385,0.7342452078,1.25,1.17,3.44,6.184,5.64,13.618
4802,TmSrO3,Tm,Sr,False,not balanced,not balanced,1.05,1.18,orthorhombic,-2.964,0.241,0.2,16.179,0.922,6.216,6.361,8.184,90,90,90,-4.547,O,1.385,0.6712690106,1.25,0.95,3.44,6.184,5.695,13.618
4809,TmTlO3,Tm,Tl,False,not balanced,not balanced,1.05,1.2,orthorhombic,-2.301,0.133,0,13.813,0.887,5.48,5.825,8.656,90,90,90,0.355,O,1.385,0.6660754399000001,1.25,1.62,3.44,6.184,6.108,13.618
4810,Tm2O3,Tm,Tm,False,not balanced,not balanced,1.05,0.96,cubic,-2.976,0.956,0,14.604,1.456,4.18,4.18,4.18,90,90,90,1.36,O,1.385,0.7342452078,1.25,1.25,3.44,6.184,6.184,13.618
4812,TmVO3,Tm,V,True,2,4,1.09,0.58,orthorhombic,-3.293,-0.011,0.4,11.162,1.382,5.245,5.632,7.558,90,90,90,3.816,O,1.385,0.8906306786,1.25,1.63,3.44,6.184,6.74,13.618
4814,TmYO3,Tm,Y,False,not balanced,not balanced,1.05,0.9,cubic,-2.787,1.083,0,15.361,1.077,4.251,4.251,4.251,90,90,90,0.048,O,1.385,0.7535251694,1.25,1.22,3.44,6.184,6.38,13.618
4820,UAlO3,U,Al,False,3,3,1.03,0.54,orthorhombic,-3.392,-0.011,0.6,10.771,1.428,5.34,5.349,7.54,90,90,90,4.383,O,1.385,0.8870975981999999,1.38,1.61,3.44,6.05,5.986000000000001,13.618
4824,UBaO3,U,Ba,False,not balanced,not balanced,1.17,1.35,orthorhombic,-3.22,0.24,0.4,18.953,1.23,5.856,6.008,10.773,90,90,90,-,O,1.385,0.660569589,1.38,0.89,3.44,6.05,5.212000000000001,13.618
4828,UCdO3,U,Cd,False,4,2,1.17,0.95,orthorhombic,-2.6,0.186,0.4,14.039,2.146,5.62,6.035,8.278,90,90,90,-0.036,O,1.385,0.7737292616,1.38,1.69,3.44,6.05,8.993,13.618
4831,UCrO3,U,Cr,False,3,3,1.03,0.62,rhombohedral,-2.959,0.16,1.2,11.898,0.418,5.471,5.471,5.471,61.2,61.2,61.2,4.983,O,1.385,0.8517021828,1.38,1.66,3.44,6.05,6.766,13.618
4832,UCsO3,U,Cs,False,not balanced,not balanced,1.17,1.67,tetragonal,-2.343,0.712,0.2,18.762,1.048,3.608,3.608,7.208,90,90,90,-,O,1.385,0.5913773571000001,1.38,0.79,3.44,6.05,3.8939999999999997,13.618
4838,UGaO3,U,Ga,False,3,3,1.03,0.62,orthorhombic,-2.75,0.242,0.6,11.842,1.067,5.475,5.502,7.862,90,90,90,3.046,O,1.385,0.8517021828,1.38,1.81,3.44,6.05,5.999,13.618
4842,UHgO3,U,Hg,False,4,2,1.17,1.02,orthorhombic,-2.226,0.291,0.4,15.403,1.773,5.681,6.135,8.838,90,90,90,-2.345,O,1.385,0.7512090751999999,1.38,2,3.44,6.05,10.437000000000001,13.618
4846,UKO3,U,K,False,not balanced,not balanced,1.17,1.38,orthorhombic,-2.87,0.27,0.2,17.52,2.296,5.403,5.74,11.299,90,90,90,-3.13,O,1.385,0.6534024687,1.38,0.82,3.44,6.05,4.341,13.618
4848,ULiO3,U,Li,False,5,1,0.84,0.76,orthorhombic,-3.047,0.099,0.2,10.735,2.256,5.167,5.647,7.359,90,90,90,-2.292,O,1.385,0.7334790620999999,1.38,0.98,3.44,6.05,5.392,13.618
4850,UMgO3,U,Mg,False,4,2,1.17,0.72,orthorhombic,-3.363,0.107,0.4,11.777,3.156,5.348,5.732,7.683,90,90,90,0.9,O,1.385,0.8582697509999999,1.38,1.31,3.44,6.05,7.646,13.618
4851,UMnO3,U,Mn,False,3,3,1.03,0.65,orthorhombic,-2.991,0.115,1.4,12.781,1.822,5.463,5.94,7.879,90,90,90,3.81,O,1.385,0.8391463767,1.38,1.55,3.44,6.05,7.435,13.618
4853,UNaO3,U,Na,False,not balanced,not balanced,1.17,1.02,orthorhombic,-2.87,0.238,0.2,13.162,2.597,5.483,5.74,8.365,90,90,90,-4.483,O,1.385,0.7512090751999999,1.38,0.93,3.44,6.05,5.138999999999999,13.618
4860,UPbO3,U,Pb,False,not balanced,not balanced,1.17,0.99,orthorhombic,-2.554,0.266,0.4,17.378,0.881,5.706,5.963,10.215,90,90,90,-,O,1.385,0.7606980320000001,1.38,2.33,3.44,6.05,7.416,13.618
4866,URbO3,U,Rb,False,not balanced,not balanced,1.17,1.52,orthorhombic,-2.834,0.28,0.2,18.845,2.31,5.387,5.747,12.174,90,90,90,-10.746,O,1.385,0.6219131931,1.38,0.82,3.44,6.05,4.177,13.618
4871,UScO3,U,Sc,False,3,3,1.03,0.75,orthorhombic,-3.609,0.013,0.6,13.125,2.023,5.6,5.831,8.039,90,90,90,4.046,O,1.385,0.7998420968000001,1.38,1.36,3.44,6.05,6.54,13.618
4875,USrO3,U,Sr,False,4,2,1.17,1.18,orthorhombic,-3.326,0.161,0.4,16.725,1.939,5.809,5.967,9.651,90,90,90,-7.732,O,1.385,0.7043500295999999,1.38,0.95,3.44,6.05,5.695,13.618
4885,UVO3,U,V,False,3,3,1.03,0.64,orthorhombic,-3.176,0.02,1,12.447,1.685,5.392,5.949,7.76,90,90,90,4.461,O,1.385,0.8432903093999999,1.38,1.63,3.44,6.05,6.74,13.618
4891,VAcO3,V,Ac,False,element not in BV,element not in BV,0.72,1.12,orthorhombic,-2.93,0.291,0.4,15.507,1.198,5.844,5.912,8.977,90,90,90,-,O,1.385,0.5941955187,1.63,1.1,3.44,6.74,5.17,13.618
4892,VAgO3,V,Ag,False,not balanced,not balanced,0.72,0.95,orthorhombic,-1.633,0.074,0,13.017,1.337,5.179,5.572,9.022,90,90,90,-6.146,O,1.385,0.6374560062,1.63,1.93,3.44,6.74,7.5760000000000005,13.618
4893,VAlO3,V,Al,False,not balanced,not balanced,0.72,0.54,orthorhombic,-2.863,0.085,0.4,8.938,1.896,4.981,5.175,6.935,90,90,90,-0.28,O,1.385,0.7732258568000001,1.63,1.61,3.44,6.74,5.986000000000001,13.618
4897,VBaO3,V,Ba,False,not balanced,not balanced,0.72,1.35,orthorhombic,-2.704,0.162,0.2,16.597,1.269,5.416,5.953,10.295,90,90,90,-13.06,O,1.385,0.5442266085999999,1.63,0.89,3.44,6.74,5.212000000000001,13.618
4899,VBiO3,V,Bi,False,not balanced,not balanced,0.72,0.9,orthorhombic,-1.819,0.233,0.4,13.85,0.451,5.724,5.773,8.382,90,90,90,-,O,1.385,0.6514047153,1.63,2.02,3.44,6.74,7.289,13.618
4900,VCaO3,V,Ca,False,not balanced,not balanced,0.72,1.0,orthorhombic,-2.726,0.175,0.2,13.001,1.207,5.508,5.518,8.554,90,90,90,-,O,1.385,0.6240921486,1.63,1,3.44,6.74,6.1129999999999995,13.618
4901,VCdO3,V,Cd,False,not balanced,not balanced,0.72,0.95,orthorhombic,-1.843,0.19,0.2,12.529,0.206,5.335,5.416,8.671,90,90,90,-7.137,O,1.385,0.6374560062,1.63,1.69,3.44,6.74,8.993,13.618
4902,VCeO3,V,Ce,False,2,4,0.79,0.87,orthorhombic,-2.861,0.298,0.4,14.417,1.39,5.738,5.883,8.542,90,90,90,-7.387,O,1.385,0.682020953,1.63,1.12,3.44,6.74,5.54,13.618
4919,VKO3,V,K,False,not balanced,not balanced,0.72,1.38,orthorhombic,-2.333,0.037,0,16.119,2.424,5.479,5.683,10.354,90,90,90,-9.684,O,1.385,0.5383217991,1.63,0.82,3.44,6.74,4.341,13.618
4920,VLaO3,V,La,False,not balanced,not balanced,0.72,1.03,orthorhombic,-2.973,0.275,0.4,14.351,1.388,5.725,5.85,8.571,90,90,90,-6.936,O,1.385,0.6163394511,1.63,1.1,3.44,6.74,5.58,13.618
4921,VLiO3,V,Li,False,not balanced,not balanced,0.72,0.76,orthorhombic,-2.164,0.208,0,8.948,1.794,4.691,5.019,7.601,90,90,90,-5.697,O,1.385,0.6939206406999999,1.63,0.98,3.44,6.74,5.392,13.618
4926,VNaO3,V,Na,False,not balanced,not balanced,0.72,1.02,orthorhombic,-2.233,0.242,0,12.446,2.123,5.305,5.535,8.478,90,90,90,-10.109,O,1.385,0.6189021931,1.63,0.93,3.44,6.74,5.138999999999999,13.618
4928,VNdO3,V,Nd,False,not balanced,not balanced,0.72,0.98,orthorhombic,-2.912,0.284,0.4,13.858,1.358,5.687,5.808,8.392,90,90,90,-5.876,O,1.385,0.6293698835,1.63,1.14,3.44,6.74,5.53,13.618
4930,VNpO3,V,Np,False,element not in BV,element not in BV,0.72,0.86,orthorhombic,-2.917,0.247,1.2,13.46,1.331,5.548,5.831,8.321,90,90,90,-,O,1.385,0.6630110354,1.63,1.36,3.44,6.74,6.19,13.618
4933,VPbO3,V,Pb,False,2,4,0.79,0.78,rhombohedral,-1.794,0.288,0.2,16.128,1.394,6.164,6.164,6.164,58.9,58.9,58.9,-,O,1.385,0.7103728632999999,1.63,2.33,3.44,6.74,7.416,13.618
4936,VPrO3,V,Pr,False,2,4,0.79,0.85,orthorhombic,-2.888,0.292,0.4,14.118,1.315,5.723,5.819,8.479,90,90,90,-7.01,O,1.385,0.6881240488,1.63,1.13,3.44,6.74,5.46,13.618
4938,VPuO3,V,Pu,False,element not in BV,element not in BV,0.72,0.83,orthorhombic,-2.85,0.29,1.4,13.196,0.614,5.536,5.782,8.246,90,90,90,-,O,1.385,0.6719908687999999,1.63,1.28,3.44,6.74,6.06,13.618
4939,VRbO3,V,Rb,False,not balanced,not balanced,0.72,1.52,orthorhombic,-2.339,0.029,0,17.828,2.477,5.618,5.953,10.66,90,90,90,-19.751,O,1.385,0.5123785798,1.63,0.82,3.44,6.74,4.177,13.618
4946,VSmO3,V,Sm,False,not balanced,not balanced,0.72,0.96,orthorhombic,-2.955,0.268,0.4,13.425,1.638,5.655,5.74,8.271,90,90,90,-6.477,O,1.385,0.6347376437,1.63,1.17,3.44,6.74,5.64,13.618
4948,VSrO3,V,Sr,False,not balanced,not balanced,0.72,1.18,orthorhombic,-2.723,0.158,0.2,14.899,1.523,5.532,5.639,9.553,90,90,90,-9.981,O,1.385,0.5802962083,1.63,0.95,3.44,6.74,5.695,13.618
4955,VTlO3,V,Tl,False,not balanced,not balanced,0.72,1.2,orthorhombic,-1.566,0.404,0.4,12.645,0.209,5.575,5.589,8.116,90,90,90,-5.31,O,1.385,0.5758064891,1.63,1.62,3.44,6.74,6.108,13.618
4965,WAgO3,W,Ag,False,3,3,0.66,0.75,orthorhombic,-1.414,0.543,0,13.656,0.532,5.252,6.199,8.389,90,90,90,-12.443,O,1.385,0.6772990012000001,2.36,1.93,3.44,7.98,7.5760000000000005,13.618
4970,WBaO3,W,Ba,False,4,2,0.66,1.35,rhombohedral,-2.419,0.308,0,18.913,1.695,6.269,6.269,6.269,63.9,63.9,63.9,-18.683,O,1.385,0.5287142112,2.36,0.89,3.44,7.98,5.212000000000001,13.618
4973,WCaO3,W,Ca,False,4,2,0.66,1.0,rhombohedral,-2.37,0.393,0,14.438,0.855,5.777,5.777,5.777,62.7,62.7,62.7,-13.482,O,1.385,0.6063032988,2.36,1,3.44,7.98,6.1129999999999995,13.618
4974,WCdO3,W,Cd,False,4,2,0.66,0.95,rhombohedral,-1.494,0.462,0,13.866,1.108,5.444,5.444,5.444,70.4,70.4,70.4,-12.523,O,1.385,0.6192862388,2.36,1.69,3.44,7.98,8.993,13.618
4978,WCsO3,W,Cs,False,not balanced,not balanced,0.63,1.67,rhombohedral,-1.921,0.284,0.2,24.231,1.548,6.994,6.994,6.994,60.1,60.1,60.1,-,O,1.385,0.46638957909999995,2.36,0.79,3.44,7.98,3.8939999999999997,13.618
5021,WSrO3,W,Sr,False,4,2,0.66,1.18,rhombohedral,-2.413,0.332,0,16.614,1.361,6.037,6.037,6.037,63.1,63.1,63.1,-16.873,O,1.385,0.5637556988,2.36,0.95,3.44,7.98,5.695,13.618
5039,YAlO3,Y,Al,True,3,3,1.08,0.54,orthorhombic,-3.56,-0.023,0,10.255,5.872,5.188,5.347,7.394,90,90,90,6.272,O,1.385,0.9054640081,1.22,1.61,3.44,6.38,5.986000000000001,13.618
5042,YBO3,Y,B,False,3,3,1.08,0.27,cubic,-2.487,0.88,0,8.307,2.953,3.463,3.463,3.463,90,90,90,5.345,O,1.385,1.0531832119,1.22,2.04,3.44,6.38,8.298,13.618
5043,YBaO3,Y,Ba,False,not balanced,not balanced,1.08,1.35,orthorhombic,-2.811,0.275,0.2,18.577,0.709,6.515,6.787,8.403,90,90,90,-7.335,O,1.385,0.6373009929,1.22,0.89,3.44,6.38,5.212000000000001,13.618
5048,YCeO3,Y,Ce,False,3,3,1.08,1.01,cubic,-2.323,1.342,0,18.662,0.389,4.536,4.536,4.536,90,90,90,-2.979,O,1.385,0.7277737851999999,1.22,1.12,3.44,6.38,5.54,13.618
5050,YCrO3,Y,Cr,True,3,3,1.08,0.62,orthorhombic,-3.178,-0.033,0.6,11.195,2.6,5.281,5.578,7.6,90,90,90,4.248,O,1.385,0.8693357684,1.22,1.66,3.44,6.38,6.766,13.618
5052,YCuO3,Y,Cu,False,3,3,1.08,0.54,orthorhombic,-2.259,0.048,0,11.081,0.374,5.237,5.899,7.174,90,90,90,0.702,O,1.385,0.9054640081,1.22,1.9,3.44,6.38,7.726,13.618
5053,YDyO3,Y,Dy,False,3,3,1.08,0.91,cubic,-2.911,0.918,0,15.491,1.445,4.263,4.263,4.263,90,90,90,1.026,O,1.385,0.7594850612999999,1.22,1.22,3.44,6.38,5.94,13.618
5054,YErO3,Y,Er,False,3,3,1.08,0.89,cubic,-3.01,0.842,0,15.017,1.895,4.219,4.219,4.219,90,90,90,1.808,O,1.385,0.766161853,1.22,1.24,3.44,6.38,6.101,13.618
5056,YFeO3,Y,Fe,True,3,3,1.08,0.65,orthorhombic,-2.758,-0.029,1,11.329,1.153,5.298,5.607,7.627,90,90,90,3.19,O,1.385,0.8565200076999999,1.22,1.83,3.44,6.38,7.87,13.618
5057,YGaO3,Y,Ga,True,3,3,1.08,0.62,orthorhombic,-2.946,0.024,0,11.113,4.139,5.277,5.565,7.569,90,90,90,4.486,O,1.385,0.8693357684,1.22,1.81,3.44,6.38,5.999,13.618
5058,YGdO3,Y,Gd,False,3,3,1.08,0.94,cubic,-2.798,1.002,0,16.091,1.371,4.317,4.317,4.317,90,90,90,0.203,O,1.385,0.7496852540000001,1.22,1.2,3.44,6.38,6.15,13.618
5062,YHoO3,Y,Ho,False,3,3,1.08,0.9,cubic,-2.963,0.878,0,15.248,1.662,4.24,4.24,4.24,90,90,90,1.406,O,1.385,0.7628088471,1.22,1.23,3.44,6.38,6.018,13.618
5063,YInO3,Y,In,False,3,3,1.08,0.8,cubic,-2.108,0.718,0,13.003,1.415,4.021,4.021,4.021,90,90,90,-,O,1.385,0.7977200072,1.22,1.78,3.44,6.38,5.7860000000000005,13.618
5066,YLaO3,Y,La,False,3,3,1.08,1.03,cubic,-2.446,1.315,0,18.419,0.387,4.516,4.516,4.516,90,90,90,-2.941,O,1.385,0.7217466731000001,1.22,1.1,3.44,6.38,5.58,13.618
5068,YLuO3,Y,Lu,False,3,3,1.08,0.86,cubic,-3.151,0.734,0,14.331,2.052,4.154,4.154,4.154,90,90,90,2.879,O,1.385,0.7764000959999999,1.22,1.27,3.44,6.38,5.4259,13.618
5070,YMnO3,Y,Mn,True,3,3,1.08,0.65,orthorhombic,-2.936,0.023,0.8,11.38,0.379,5.293,5.739,7.493,90,90,90,3.468,O,1.385,0.8565200076999999,1.22,1.55,3.44,6.38,7.435,13.618
5074,YNdO3,Y,Nd,False,3,3,1.08,0.98,cubic,-2.502,1.212,0,17.67,0.825,4.454,4.454,4.454,90,90,90,-1.797,O,1.385,0.7370055879999999,1.22,1.14,3.44,6.38,5.53,13.618
5082,YPrO3,Y,Pr,False,3,3,1.08,0.99,cubic,-2.419,1.273,0,18.136,0.619,4.493,4.493,4.493,90,90,90,-2.36,O,1.385,0.7339024066,1.22,1.13,3.44,6.38,5.46,13.618
5085,YRbO3,Y,Rb,False,not balanced,not balanced,1.08,1.52,orthorhombic,-2.135,0.338,0,18.335,1.451,6.164,6.253,9.515,90,90,90,-8.123,O,1.385,0.6000062704,1.22,0.82,3.44,6.38,4.177,13.618
5090,YScO3,Y,Sc,True,3,3,1.08,0.75,orthorhombic,-3.781,0.027,0,12.271,4.661,5.43,5.721,7.901,90,90,90,5.013,O,1.385,0.8164019745000001,1.22,1.36,3.44,6.38,6.54,13.618
5092,YSmO3,Y,Sm,False,3,3,1.08,0.96,cubic,-2.647,1.108,0,16.879,1.24,4.386,4.386,4.386,90,90,90,-0.803,O,1.385,0.7432913498999999,1.22,1.17,3.44,6.38,5.64,13.618
5101,YTlO3,Y,Tl,False,3,3,1.08,0.89,orthorhombic,-2.265,0.108,0,14.133,1.097,5.576,5.93,8.549,90,90,90,0.61,O,1.385,0.766161853,1.22,1.62,3.44,6.38,6.108,13.618
5102,YTmO3,Y,Tm,False,3,3,1.08,0.88,cubic,-3.07,0.8,0,14.729,1.869,4.192,4.192,4.192,90,90,90,2.191,O,1.385,0.7695444661,1.22,1.25,3.44,6.38,6.184,13.618
5104,YVO3,Y,V,True,3,3,1.08,0.64,orthorhombic,-3.25,-0.031,0.4,11.521,1.489,5.313,5.703,7.605,90,90,90,3.984,O,1.385,0.8607497360999999,1.22,1.63,3.44,6.38,6.74,13.618
5106,Y2O3,Y,Y,False,3,3,1.08,0.9,cubic,-2.888,0.92,0,15.51,1.751,4.264,4.264,4.264,90,90,90,1.075,O,1.385,0.7628088471,1.22,1.22,3.44,6.38,6.38,13.618
5189,ZnBaO3,Zn,Ba,False,not balanced,not balanced,0.9,1.35,orthorhombic,-1.712,0.219,-,16.147,2.081,6.108,6.555,8.065,90,90,90,-8.098,O,1.385,0.5907638007,1.65,0.89,3.44,9.394,5.212000000000001,13.618
5192,ZnCaO3,Zn,Ca,False,not balanced,not balanced,0.9,1.0,orthorhombic,-1.804,0.159,-,12.398,1.966,5.807,5.954,7.171,90,90,90,-6.668,O,1.385,0.6774586981,1.65,1,3.44,9.394,6.1129999999999995,13.618
5194,ZnCeO3,Zn,Ce,False,2,4,0.9,0.87,orthorhombic,-2.228,0.192,0.2,14.337,0.626,5.515,5.978,8.697,90,90,90,-4.988,O,1.385,0.7165139667,1.65,1.12,3.44,9.394,5.54,13.618
5212,ZnLaO3,Zn,La,False,not balanced,not balanced,0.9,1.03,orthorhombic,-2.333,0.183,0.2,14.238,0.656,5.439,5.977,8.759,90,90,90,-4.393,O,1.385,0.6690430621,1.65,1.1,3.44,9.394,5.58,13.618
5220,ZnNdO3,Zn,Nd,False,not balanced,not balanced,0.9,0.98,orthorhombic,-2.275,0.258,0.2,13.873,0.509,5.458,5.847,8.694,90,90,90,-4.769,O,1.385,0.6831877356999999,1.65,1.14,3.44,9.394,5.53,13.618
5224,ZnPaO3,Zn,Pa,False,element not in BV,element not in BV,0.9,0.91,rhombohedral,-2.497,0.021,0.2,14.663,1.523,6.136,6.136,6.136,55.6,55.6,55.6,3.359,O,1.385,0.7040257059,1.65,1.5,3.44,9.394,5.89,13.618
5225,ZnPbO3,Zn,Pb,False,2,4,0.9,0.78,rhombohedral,-1.266,0.062,-,12.801,0.218,5.778,5.778,5.778,57.3,57.3,57.3,-2.514,O,1.385,0.7462997667,1.65,2.33,3.44,9.394,7.416,13.618
5228,ZnPrO3,Zn,Pr,False,2,4,0.9,0.85,orthorhombic,-2.255,0.193,0.2,14.103,0.655,5.493,5.873,8.743,90,90,90,-4.902,O,1.385,0.7229257248000001,1.65,1.13,3.44,9.394,5.46,13.618
5238,ZnSmO3,Zn,Sm,False,not balanced,not balanced,0.9,0.96,orthorhombic,-2.311,0.199,0.2,13.484,0.543,5.451,5.759,8.59,90,90,90,-4.454,O,1.385,0.6890144968,1.65,1.17,3.44,9.394,5.64,13.618
5240,ZnSrO3,Zn,Sr,False,not balanced,not balanced,0.9,1.18,orthorhombic,-1.764,0.191,-,14.115,2.076,5.974,6.23,7.585,90,90,90,-8.333,O,1.385,0.6299177368,1.65,0.95,3.44,9.394,5.695,13.618