,Unnamed: 0,Unnamed: 0.1,Chemical formula,A,B,In literature,Valence A,Valence B,Radius A [ang],Radius B [ang],Lowest distortion,Formation energy [eV/atom],Stability [eV/atom],Magnetic moment [mu_B],Volume per atom [A^3/atom],Band gap [eV],a [ang],b [ang],c [ang],alpha [deg],beta [deg],gamma [deg],Vacancy energy [eV/O atom],Octahedral Factor,Tolerance Factor,A Ionization Energy,B Ionization Energy,A Electronegativity,B Electronegativity,Goldschmidt Tolerance Factor
3765,3765,3765,RuPbO3,Ru,Pb,0,2,4,0.68,0.78,rhombohedral,-0.941,0.347,0.4,15.822,0.216,5.873,5.873,5.873,64.8,64.8,64.8,-,0.5777777778000001,0.6739092797,7.37,7.416,2.2,2.33,0.6746706903
3780,3780,3780,RuSrO3,Ru,Sr,0,not balanced,not balanced,0.62,1.18,rhombohedral,-1.794,0.23,0.4,16.948,0.598,6.36,6.36,6.36,57,57,57,-11.44,0.8740740740999999,0.5505930272,7.37,5.695,2.2,0.95,0.5536262395
3797,3797,3797,SbAgO3,Sb,Ag,0,3,3,0.76,0.75,orthorhombic,-0.935,0.331,-,13.442,0.206,5.427,5.695,8.698,90,90,90,-0.728,0.5555555556,0.7104739563,8.641,7.5760000000000005,2.05,1.93,0.7103956498999999
3798,3798,3798,SbAlO3,Sb,Al,0,3,3,0.76,0.54,tetragonal,-2.282,0.141,-,11.23,1.287,3.592,3.592,4.352,90,90,90,4.409,0.4,0.7894155070000001,8.641,5.986000000000001,2.05,1.61,0.7872941481
3801,3801,3801,SbBO3,Sb,B,0,3,3,0.76,0.27,cubic,-1.1,1.001,-,8.51,1.554,3.491,3.491,3.491,90,90,90,3.328,0.2,0.9209847581999999,8.641,8.298,2.05,2.04,0.9145812259999999
3808,3808,3808,SbCoO3,Sb,Co,0,3,3,0.76,0.61,cubic,-0.969,0.549,0,10.413,0.194,3.734,3.734,3.734,90,90,90,2.075,0.4518518519,0.7612220961,8.641,7.86,2.05,1.88,0.759875944
3809,3809,3809,SbCrO3,Sb,Cr,0,3,3,0.76,0.62,orthorhombic,-1.891,0.139,0.6,11.448,0.811,5.272,5.679,7.647,90,90,90,2.906,0.4592592593,0.7573580245,8.641,6.766,2.05,1.66,0.7561141819
3815,3815,3815,SbFeO3,Sb,Fe,0,3,3,0.76,0.65,tetragonal,-1.503,0.151,0.999,12.504,0.906,3.681,3.681,4.615,90,90,90,1.172,0.4814814815,0.7459976542,8.641,7.87,2.05,1.83,0.7450490962999999
3816,3816,3816,SbGaO3,Sb,Ga,0,3,3,0.76,0.62,tetragonal,-1.712,0.129,-,12.241,1.364,3.627,3.627,4.653,90,90,90,2.757,0.4592592593,0.7573580245,8.641,5.999,2.05,1.81,0.7561141819
3824,3824,3824,SbKO3,Sb,K,0,not balanced,not balanced,0.68,1.38,orthorhombic,-1.599,0.294,-,17.022,1.688,5.053,5.704,11.812,90,90,90,-10.429,1.0222222222,0.5257973501,8.641,4.341,2.05,0.82,0.5290583111
3831,3831,3831,SbNaO3,Sb,Na,0,not balanced,not balanced,0.68,1.02,orthorhombic,-1.628,0.294,-,12.545,1.21,4.78,5.215,10.064,90,90,90,-9.071,0.7555555556,0.605665302,8.641,5.138999999999999,2.05,0.93,0.6077612004
3837,3837,3837,SbPaO3,Sb,Pa,0,element not in BV,element not in BV,0.68,0.91,orthorhombic,-2.143,0.242,0,16.276,1.179,6.35,6.358,8.062,90,90,90,2.381,0.6740740741,0.6351445866,8.641,5.89,2.05,1.5,0.6367022099
3844,3844,3844,SbRbO3,Sb,Rb,0,not balanced,not balanced,0.68,1.52,orthorhombic,-1.605,0.248,-,18.771,1.89,5.206,5.92,12.181,90,90,90,-11.304,1.1259259259,0.5001486989,8.641,4.177,2.05,0.82,0.5036925017
3849,3849,3849,SbScO3,Sb,Sc,0,3,3,0.76,0.75,cubic,-2.084,0.61,0,13.031,0.834,4.024,4.024,4.024,90,90,90,0.35,0.5555555556,0.7104739563,8.641,6.54,2.05,1.36,0.7103956498999999
3860,3860,3860,SbTlO3,Sb,Tl,0,not balanced,not balanced,0.68,1.2,orthorhombic,-1.18,0.365,-,14.757,0.869,5.751,6.242,8.222,90,90,90,-4.176,0.8888888889,0.5629124571999999,8.641,6.108,2.05,1.62,0.5656854249000001
3863,3863,3863,SbVO3,Sb,V,0,3,3,0.76,0.64,orthorhombic,-1.993,0.112,0.4,11.801,0.606,5.306,5.791,7.681,90,90,90,3.131,0.47407407409999996,0.7497463861,8.641,6.74,2.05,1.63,0.7487012976999999
3869,3869,3869,ScAcO3,Sc,Ac,0,element not in BV,element not in BV,0.87,1.12,orthorhombic,-3.507,0.255,0,16.091,3.507,5.962,6.047,8.927,90,90,90,-6.533,0.8296296296,0.6355372689,6.54,5.17,1.36,1.1,0.6369572989
3871,3871,3871,ScAlO3,Sc,Al,1,3,3,0.87,0.54,orthorhombic,-3.508,0.028,0,9.322,5.018,4.939,5.23,7.218,90,90,90,5.068,0.4,0.83056987,6.54,5.986000000000001,1.36,1.61,0.8273878316
3874,3874,3874,ScBO3,Sc,B,0,3,3,0.87,0.27,cubic,-2.326,0.947,0,7.496,2.021,3.347,3.347,3.347,90,90,90,4.771,0.2,0.9689981816,6.54,8.298,1.36,2.04,0.9611571217
3880,3880,3880,ScCeO3,Sc,Ce,0,not balanced,not balanced,0.87,0.94,orthorhombic,-3.448,0.254,0,14.934,3.552,5.85,5.951,8.579,90,90,90,-5.624,0.6962962963,0.6854921634000001,6.54,5.54,1.36,1.12,0.6859540142
3881,3881,3881,ScCoO3,Sc,Co,0,3,3,0.87,0.61,cubic,-1.94,0.591,0,9.546,0.849,3.627,3.627,3.627,90,90,90,1.089,0.4518518519,0.8009066603,6.54,7.86,1.36,1.88,0.79857333
3882,3882,3882,ScCrO3,Sc,Cr,0,1,5,0.87,0.49,cubic,-2.486,0.658,0.6,10.702,0.436,3.768,3.768,3.768,90,90,90,2.781,0.36296296299999997,0.8531397034,6.54,6.766,1.36,1.66,0.8492763986
3885,3885,3885,ScDyO3,Sc,Dy,0,not balanced,not balanced,0.87,0.99,cubic,-2.451,1.378,0,15.377,0.464,4.252,4.252,4.252,90,90,90,-2.252,0.7333333333,0.670844895,6.54,5.94,1.36,1.22,0.6716035118000001
3886,3886,3886,ScErO3,Sc,Er,0,not balanced,not balanced,0.87,0.89,cubic,-2.549,1.303,0,14.845,0.69,4.203,4.203,4.203,90,90,90,-1.591,0.6592592593,0.7007933278,6.54,6.101,1.36,1.24,0.7009311761
3889,3889,3889,ScGaO3,Sc,Ga,0,not balanced,not balanced,0.87,0.62,cubic,-2.283,0.672,0,10.576,1.582,3.753,3.753,3.753,90,90,90,3.32,0.4592592593,0.7968411443000001,6.54,5.999,1.36,1.81,0.7946199967
3890,3890,3890,ScGdO3,Sc,Gd,0,not balanced,not balanced,0.87,0.94,cubic,-2.339,1.461,0,15.967,0.448,4.306,4.306,4.306,90,90,90,-2.876,0.6962962963,0.6854921634000001,6.54,6.15,1.36,1.2,0.6859540142
3894,3894,3894,ScHoO3,Sc,Ho,0,not balanced,not balanced,0.87,0.9,cubic,-2.501,1.343,0,15.091,0.687,4.226,4.226,4.226,90,90,90,-1.919,0.6666666667,0.6976786908,6.54,6.018,1.36,1.23,0.6978836493
3895,3895,3895,ScInO3,Sc,In,0,not balanced,not balanced,0.87,0.8,orthorhombic,-2.677,0.149,0,11.99,3.175,5.317,5.581,8.082,90,90,90,0.677,0.5925925926,0.7301288624,6.54,5.7860000000000005,1.36,1.78,0.7296056333
3897,3897,3897,ScKO3,Sc,K,0,not balanced,not balanced,0.87,1.38,orthorhombic,-2.157,0.336,0,15.147,1.677,5.705,5.823,9.12,90,90,90,-,1.0222222222,0.57500991,6.54,4.341,1.36,0.82,0.577385753
3898,3898,3898,ScLaO3,Sc,La,0,not balanced,not balanced,0.87,1.03,orthorhombic,-3.557,0.232,0,14.829,4.122,5.817,5.923,8.607,90,90,90,-5.546,0.762962963,0.6595701909,6.54,5.58,1.36,1.1,0.66054831
3900,3900,3900,ScLuO3,Sc,Lu,0,not balanced,not balanced,0.87,0.86,cubic,-2.692,1.193,0,14.111,0.696,4.132,4.132,4.132,90,90,90,-0.613,0.637037037,0.7103063594,6.54,5.4259,1.36,1.27,0.7102355723
3906,3906,3906,ScNdO3,Sc,Nd,0,not balanced,not balanced,0.87,0.98,orthorhombic,-3.506,0.23,0,14.353,3.62,5.768,5.89,8.45,90,90,90,-4.7,0.7259259259,0.6737240576000001,6.54,5.53,1.36,1.14,0.6744253753
3908,3908,3908,ScNpO3,Sc,Np,0,element not in BV,element not in BV,0.87,0.86,orthorhombic,-3.479,0.234,0.8,14.522,1.833,5.815,5.882,8.49,90,90,90,2.058,0.637037037,0.7103063594,6.54,6.19,1.36,1.36,0.7102355723
3914,3914,3914,ScPrO3,Sc,Pr,0,not balanced,not balanced,0.87,0.92,orthorhombic,-3.479,0.242,0,14.625,3.617,5.806,5.921,8.508,90,90,90,-5.149,0.6814814815000001,0.691531742,6.54,5.46,1.36,1.13,0.6918674109
3917,3917,3917,ScRbO3,Sc,Rb,0,not balanced,not balanced,0.87,1.52,orthorhombic,-2.175,0.297,0,16.645,2.45,6.447,6.943,7.438,90,90,90,-12.193,1.1259259259,0.5469606461,6.54,4.177,1.36,0.82,0.5497028744
3922,3922,3922,Sc2O3,Sc,Sc,0,not balanced,not balanced,0.87,0.75,cubic,-2.87,0.938,0,12.365,1.319,3.954,3.954,3.954,90,90,90,1.199,0.5555555556,0.747512883,6.54,6.54,1.36,1.36,0.7465732062
3924,3924,3924,ScSmO3,Sc,Sm,0,not balanced,not balanced,0.87,0.96,orthorhombic,-3.556,0.204,0,13.929,4.072,5.706,5.84,8.36,90,90,90,-3.864,0.7111111111,0.6795571663,6.54,5.64,1.36,1.17,0.6801408445999999
3926,3926,3926,ScSrO3,Sc,Sr,0,not balanced,not balanced,0.87,1.18,orthorhombic,-2.92,0.22,0.2,15.246,0.827,5.918,6.204,8.305,90,90,90,-6.833,0.8740740740999999,0.6204652388,6.54,5.695,1.36,0.95,0.6221443385000001
3933,3933,3933,ScTlO3,Sc,Tl,0,not balanced,not balanced,0.87,1.2,orthorhombic,-2.175,0.197,0,13.138,1.462,5.517,5.734,8.307,90,90,90,-3.495,0.8888888889,0.6155988447999999,6.54,6.108,1.36,1.62,0.6173586128
3934,3934,3934,ScTmO3,Sc,Tm,0,not balanced,not balanced,0.87,0.96,cubic,-2.61,1.26,0,14.569,0.69,4.176,4.176,4.176,90,90,90,-1.199,0.7111111111,0.6795571663,6.54,6.184,1.36,1.25,0.6801408445999999
3938,3938,3938,ScYO3,Sc,Y,0,not balanced,not balanced,0.87,0.9,cubic,-2.427,1.381,0,15.373,0.665,4.252,4.252,4.252,90,90,90,-2.179,0.6666666667,0.6976786908,6.54,6.38,1.36,1.22,0.6978836493
3951,3951,3951,SiCaO3,Si,Ca,0,not balanced,not balanced,0.4,1.0,orthorhombic,-3.108,0.184,-,12.268,4.126,4.921,5.143,9.694,90,90,90,-9.925,0.7407407407,0.5265688796,8.151,6.1129999999999995,1.9,1,0.5303300859000001
3964,3964,3964,SiGeO3,Si,Ge,0,2,4,0.4,0.53,cubic,-1.121,1.29,-,10.332,1.221,3.724,3.724,3.724,90,90,90,3.399,0.39259259259999996,0.6582110995,8.151,7.899,1.9,2.01,0.659477827
3965,3965,3965,SiHfO3,Si,Hf,0,not balanced,not balanced,0.4,0.71,cubic,-2.188,1.049,0,13.369,1.454,4.058,4.058,4.058,90,90,90,4.313,0.5259259259000001,0.6006975083,8.151,6.65,1.9,1.3,0.603219055
3977,3977,3977,SiNaO3,Si,Na,0,not balanced,not balanced,0.4,1.02,orthorhombic,-2.283,0.226,-,11.325,0.583,4.918,5.456,8.442,90,90,90,-14.205,0.7555555556,0.5221252604,8.151,5.138999999999999,1.9,0.93,0.5259471926
3996,3996,3996,Si2O3,Si,Si,0,not balanced,not balanced,0.4,0.4,cubic,-1.763,1.003,-,8.977,1.921,3.554,3.554,3.554,90,90,90,5.683,0.2962962963,0.7071067812,8.151,8.151,1.9,1.9,0.7071067812
3998,3998,3998,SiSnO3,Si,Sn,0,2,4,0.4,0.69,cubic,-1.023,1.436,-,12.901,1.755,4.01,4.01,4.01,90,90,90,2.712,0.5111111111,0.6065866995,8.151,7.343999999999999,1.9,1.96,0.6089914862
4005,4005,4005,SiTiO3,Si,Ti,0,not balanced,not balanced,0.4,0.71,cubic,-1.964,1,0,11.403,1.725,3.849,3.849,3.849,90,90,90,1.685,0.5259259259000001,0.6006975083,8.151,6.82,1.9,1.54,0.603219055
4014,4014,4014,SiZrO3,Si,Zr,0,not balanced,not balanced,0.4,0.72,cubic,-1.995,1.137,0,13.933,1.469,4.115,4.115,4.115,90,90,90,3.899,0.5333333333,0.597795588,8.151,6.84,1.9,1.33,0.6003736821
4017,4017,4017,SmAlO3,Sm,Al,1,3,3,1.24,0.54,orthorhombic,-3.537,-0.054,0,10.494,4.871,5.288,5.305,7.481,90,90,90,6.413,0.4,0.9689981816,5.64,5.986000000000001,1.17,1.61,0.9622484032999999
4020,4020,4020,SmBO3,Sm,B,0,not balanced,not balanced,1.24,0.27,cubic,-2.474,0.849,0,8.649,2.677,3.51,3.51,3.51,90,90,90,5.211,0.2,1.1304978786,5.64,8.298,1.17,2.04,1.1178214984000001
4026,4026,4026,SmCeO3,Sm,Ce,0,2,4,1.32,0.87,cubic,-2.444,1.167,0,18.747,0.779,4.543,4.543,4.543,90,90,90,-1.929,0.6444444443999999,0.8504392368000001,5.64,5.54,1.17,1.12,0.8472821343000001
4028,4028,4028,SmCrO3,Sm,Cr,1,3,3,1.24,0.62,orthorhombic,-3.151,-0.06,0.6,11.543,2.441,5.364,5.595,7.691,90,90,90,4.538,0.4592592593,0.9296480017000001,5.64,6.766,1.17,1.66,0.9241395556
4031,4031,4031,SmDyO3,Sm,Dy,0,not balanced,not balanced,1.24,0.99,cubic,-3.027,0.749,0,15.621,1.796,4.275,4.275,4.275,90,90,90,4.233,0.7333333333,0.7826523775,5.64,5.94,1.17,1.22,0.7810719257
4032,4032,4032,SmErO3,Sm,Er,0,not balanced,not balanced,1.24,0.89,cubic,-3.123,0.676,0,15.136,2.014,4.23,4.23,4.23,90,90,90,4.502,0.6592592593,0.8175922157,5.64,6.101,1.17,1.24,0.81517987
4034,4034,4034,SmFeO3,Sm,Fe,1,3,3,1.24,0.65,orthorhombic,-2.734,-0.03,1,11.7,1.151,5.383,5.638,7.71,90,90,90,3.624,0.4814814815,0.9157032815999999,5.64,7.87,1.17,1.83,0.9106155620999999
4035,4035,4035,SmGaO3,Sm,Ga,0,3,3,1.24,0.62,orthorhombic,-2.921,0.006,0,11.496,4.124,5.362,5.586,7.676,90,90,90,4.735,0.4592592593,0.9296480017000001,5.64,5.999,1.17,1.81,0.9241395556
4036,4036,4036,SmGdO3,Sm,Gd,0,not balanced,not balanced,1.24,0.94,cubic,-2.915,0.832,0,16.192,1.508,4.326,4.326,4.326,90,90,90,1.26,0.6962962963,0.7997408573,5.64,6.15,1.17,1.2,0.7977614967000001
4040,4040,4040,SmHoO3,Sm,Ho,0,not balanced,not balanced,1.24,0.9,cubic,-3.077,0.711,0,15.373,1.81,4.252,4.252,4.252,90,90,90,4.384,0.6666666667,0.8139584726000001,5.64,6.018,1.17,1.23,0.8116356097
4041,4041,4041,SmInO3,Sm,In,1,not balanced,not balanced,1.24,0.8,cubic,-2.231,0.541,0,13.327,1.604,4.054,4.054,4.054,90,90,90,3.031,0.5925925926,0.8518170062,5.64,5.7860000000000005,1.17,1.78,0.8485281374
4043,4043,4043,SmKO3,Sm,K,0,not balanced,not balanced,1.24,1.38,orthorhombic,-2.137,0.291,0,17.217,1.596,6.325,6.401,8.505,90,90,90,-3.394,1.0222222222,0.670844895,5.64,4.341,1.17,0.82,0.6714970872
4044,4044,4044,SmLaO3,Sm,La,0,not balanced,not balanced,1.24,1.03,cubic,-2.566,1.141,0,18.469,0.557,4.52,4.52,4.52,90,90,90,2.17,0.762962963,0.769498556,5.64,5.58,1.17,1.1,0.7682147746
4046,4046,4046,SmLuO3,Sm,Lu,0,not balanced,not balanced,1.24,0.86,cubic,-3.26,0.572,0,14.456,1.986,4.166,4.166,4.166,90,90,90,4.842,0.637037037,0.8286907526,5.64,5.4259,1.17,1.27,0.8260008417
4052,4052,4052,SmNdO3,Sm,Nd,0,not balanced,not balanced,1.24,0.98,cubic,-2.622,1.038,0,17.747,0.993,4.46,4.46,4.46,90,90,90,-,0.7259259259,0.7860114005,5.64,5.53,1.17,1.14,0.7843537405
4060,4060,4060,SmPrO3,Sm,Pr,0,2,4,1.32,0.85,cubic,-2.54,1.099,0,18.21,0.993,4.499,4.499,4.499,90,90,90,2.566,0.6296296296,0.8581705026,5.64,5.46,1.17,1.13,0.8548135309999999
4065,4065,4065,SmRhO3,Sm,Rh,1,2,4,1.32,0.6,orthorhombic,-2.37,-0.053,0,11.987,0.783,5.337,5.818,7.72,90,90,90,0.38,0.44444444439999997,0.9681923619,5.64,7.46,1.17,2.28,0.9616652224
4068,4068,4068,SmScO3,Sm,Sc,1,not balanced,not balanced,1.24,0.75,orthorhombic,-3.76,-0.006,0,12.664,4.491,5.511,5.778,7.954,90,90,90,5.249,0.5555555556,0.8720983634999999,5.64,6.54,1.17,1.36,0.8682613498999999
4070,4070,4070,Sm2O3,Sm,Sm,0,not balanced,not balanced,1.24,0.96,cubic,-2.766,0.935,0,16.964,1.391,4.394,4.394,4.394,90,90,90,0.92,0.7111111111,0.7928166941,5.64,5.64,1.17,1.17,0.7910008061
4079,4079,4079,SmTlO3,Sm,Tl,0,not balanced,not balanced,1.24,1.2,orthorhombic,-2.247,0.072,0,14.526,1.257,5.684,6.043,8.458,90,90,90,0.884,0.8888888889,0.7181986523,5.64,6.108,1.17,1.62,0.7179853471
4080,4080,4080,SmTmO3,Sm,Tm,0,not balanced,not balanced,1.24,0.96,cubic,-3.181,0.635,0,14.864,1.999,4.204,4.204,4.204,90,90,90,4.65,0.7111111111,0.7928166941,5.64,6.184,1.17,1.25,0.7910008061
4082,4082,4082,SmVO3,Sm,V,1,2,4,1.32,0.58,orthorhombic,-3.223,-0.057,0.4,11.864,1.105,5.398,5.695,7.718,90,90,90,4.238,0.4296296296,0.9782254434000001,5.64,6.74,1.17,1.63,0.9713790125
4084,4084,4084,SmYO3,Sm,Y,0,not balanced,not balanced,1.24,0.9,cubic,-3.003,0.752,0,15.62,1.744,4.275,4.275,4.275,90,90,90,2.084,0.6666666667,0.8139584726000001,5.64,6.38,1.17,1.22,0.8116356097
4094,4094,4094,SnBaO3,Sn,Ba,0,not balanced,not balanced,0.81,1.35,orthorhombic,-2.182,0.26,-,18.505,1.594,5.752,5.877,10.949,90,90,90,-6.743,1.0,0.5656854249000001,7.343999999999999,5.212000000000001,1.96,0.89,0.5682567223
4097,4097,4097,SnCaO3,Sn,Ca,0,not balanced,not balanced,0.81,1.0,orthorhombic,-2.297,0.249,-,14.104,0.878,5.618,5.631,8.916,90,90,90,-,0.7407407407,0.6499364457,7.343999999999999,6.1129999999999995,1.96,1,0.6511274942999999
4102,4102,4102,SnCsO3,Sn,Cs,0,not balanced,not balanced,0.81,1.67,orthorhombic,-1.362,0.324,-,20.745,0.22,5.965,6.918,10.053,90,90,90,-1.696,1.2370370370000001,0.5057452475,7.343999999999999,3.8939999999999997,1.96,0.79,0.5090247513
4111,4111,4111,SnHfO3,Sn,Hf,0,2,4,0.81,0.71,orthorhombic,-2.783,0.135,0,13.857,2.398,5.797,5.821,8.214,90,90,90,5.278,0.5259259259000001,0.7414323531,7.343999999999999,6.65,1.96,1.3,0.7406189509000001
4129,4129,4129,SnPaO3,Sn,Pa,0,element not in BV,element not in BV,0.81,0.91,orthorhombic,-2.384,0.09,0.2,16.177,2.036,5.929,6.329,8.621,90,90,90,3.83,0.6740740741,0.6758188705,7.343999999999999,5.89,1.96,1.5,0.676496098
4135,4135,4135,SnPuO3,Sn,Pu,0,element not in BV,element not in BV,0.81,0.83,orthorhombic,-2.505,0.205,0.8,15.417,0.586,5.843,6.202,8.51,90,90,90,-,0.6148148148,0.700619563,7.343999999999999,6.06,1.96,1.28,0.7007650163
4142,4142,4142,SnSiO3,Sn,Si,0,2,4,0.81,0.4,tetragonal,-2.097,0.362,-,11.247,0.865,3.477,3.477,4.652,90,90,90,5.029,0.2962962963,0.8727717985,7.343999999999999,8.151,1.96,1.9,0.8681699925
4144,4144,4144,Sn2O3,Sn,Sn,0,not balanced,not balanced,0.81,0.69,orthorhombic,-1.6,0.187,-,13.411,1.158,5.682,5.776,8.173,90,90,90,3.443,0.5111111111,0.7487012976999999,7.343999999999999,7.343999999999999,1.96,1.96,0.7477062136
4145,4145,4145,SnSrO3,Sn,Sr,0,not balanced,not balanced,0.81,1.18,orthorhombic,-2.223,0.273,-,16.198,1.174,5.743,5.798,9.73,90,90,90,-6.916,0.8740740740999999,0.603695908,7.343999999999999,5.695,1.96,0.95,0.6056999947
4150,4150,4150,SnThO3,Sn,Th,0,2,4,0.81,0.94,cubic,-2.51,0.647,0,19.05,0.645,4.567,4.567,4.567,90,90,90,3.095,0.6962962963,0.6669653482,7.343999999999999,6.08,1.96,1.3,0.6678230710999999
4151,4151,4151,SnTiO3,Sn,Ti,0,2,4,0.81,0.61,tetragonal,-2.488,0.078,0,12.534,0.744,3.867,3.867,4.192,90,90,90,4.657,0.4518518519,0.7792605344,7.343999999999999,6.82,1.96,1.54,0.7774656648999999
4160,4160,4160,SnZrO3,Sn,Zr,0,2,4,0.81,0.72,tetragonal,-2.627,0.167,0,14.31,1.659,4.051,4.051,4.359,90,90,90,4.877,0.5333333333,0.7378505543,7.343999999999999,6.84,1.96,1.33,0.7371254653
4174,4174,4174,SrCrO3,Sr,Cr,0,2,4,1.44,0.55,orthorhombic,-2.561,0.041,0.4,11.412,0.777,5.457,5.457,7.664,90,90,90,1.791,0.40740740740000003,1.038330484,5.695,6.766,0.95,1.66,1.0298375684999999
4183,4183,4183,SrGeO3,Sr,Ge,0,2,4,1.44,0.53,cubic,-2.434,0.143,-,11.292,0.308,3.836,3.836,3.836,90,90,90,4.097,0.39259259259999996,1.0493765529,5.695,7.899,0.95,2.01,1.0405094604
4184,4184,4184,SrHfO3,Sr,Hf,1,2,4,1.44,0.71,orthorhombic,-3.653,0,0,13.589,4.43,5.751,5.792,8.159,90,90,90,6.856,0.5259259259000001,0.9576834560999999,5.695,6.65,0.95,1.3,0.9517456202
4200,4200,4200,SrNpO3,Sr,Np,0,element not in BV,element not in BV,1.44,0.86,orthorhombic,-3.418,-0.014,0.6,16.005,2.6,6.008,6.182,8.619,90,90,90,-,0.637037037,0.8926823165000001,5.695,6.19,0.95,1.36,0.8885766631
4202,4202,4202,SrPaO3,Sr,Pa,0,element not in BV,element not in BV,1.44,0.91,orthorhombic,-3.18,-0.144,0.2,16.648,2.529,6.087,6.268,8.727,90,90,90,5.517,0.6740740741,0.8729327077,5.695,5.89,0.95,1.5,0.869343402
4203,4203,4203,SrPbO3,Sr,Pb,1,2,4,1.44,0.78,orthorhombic,-1.995,-0.043,-,14.902,1.042,5.881,6.041,8.389,90,90,90,1.78,0.5777777778000001,0.9262102908,5.695,7.416,0.95,2.33,0.9211849809999999
4204,4204,4204,SrPdO3,Sr,Pd,0,2,4,1.44,0.62,orthorhombic,-1.636,-0.058,-,12.586,0.299,5.588,5.683,7.927,90,90,90,0.177,0.4592592593,1.0014354921,5.695,8.34,0.95,2.2,0.994150128
4207,4207,4207,SrPtO3,Sr,Pt,0,element not in BV,element not in BV,1.44,0.67,orthorhombic,-1.708,-0.013,0,12.705,0.616,5.595,5.719,7.942,90,90,90,0.713,0.49629629630000005,0.9766474849,5.695,9.0,0.95,2.28,0.9701368399
4208,4208,4208,SrPuO3,Sr,Pu,1,element not in BV,element not in BV,1.44,0.83,orthorhombic,-3.33,-0.179,0.8,15.748,1.949,5.979,6.147,8.57,90,90,90,3.783,0.6148148148,0.9049669356000001,5.695,6.06,0.95,1.28,0.9005306092
4215,4215,4215,SrSiO3,Sr,Si,0,2,4,1.44,0.4,tetragonal,-2.989,0.287,-,11.198,2.148,3.465,3.465,4.662,90,90,90,6.066,0.2962962963,1.1273302397,5.695,8.151,0.95,1.9,1.1156573659
4217,4217,4217,SrSnO3,Sr,Sn,1,2,4,1.44,0.69,orthorhombic,-2.495,-0.042,-,13.439,2.116,5.733,5.766,8.131,90,90,90,3.937,0.5111111111,0.9670725095999999,5.695,7.343999999999999,0.95,1.96,0.9608532338
4222,4222,4222,SrTeO3,Sr,Te,0,2,4,1.44,0.97,rhombohedral,-2.018,0.193,-,14.971,0.441,5.926,5.926,5.926,60.8,60.8,60.8,3.152,0.7185185184999999,0.8503568618999999,5.695,9.009,0.95,2.1,0.8473347083
4223,4223,4223,SrThO3,Sr,Th,0,2,4,1.44,0.94,orthorhombic,-3.649,0.071,0,17.178,4.252,6.145,6.331,8.831,90,90,90,5.721,0.6962962963,0.8614969081,5.695,6.08,0.95,1.3,0.8581979737000001
4224,4224,4224,SrTiO3,Sr,Ti,1,2,4,1.44,0.61,rhombohedral,-3.354,-0.046,0,12.003,2.009,5.533,5.533,5.533,60.1,60.1,60.1,5.504,0.4518518519,1.0065448569,5.695,6.82,0.95,1.54,0.9990961485
4227,4227,4227,SrUO3,Sr,U,1,2,4,1.44,0.89,orthorhombic,-3.487,-0.018,0.4,16.258,2.645,6.026,6.228,8.664,90,90,90,5.193,0.6592592593,0.8807267498000001,5.695,6.05,0.95,1.38,0.8769359207999999
4233,4233,4233,SrZrO3,Sr,Zr,1,2,4,1.44,0.72,orthorhombic,-3.502,-0.081,0,13.995,3.938,5.797,5.863,8.234,90,90,90,-,0.5333333333,0.9530569659,5.695,6.84,0.95,1.33,0.947256254