,Chemical formula,A,B,In literature,Valence A,Valence B,Radius A [ang],Radius B [ang],Lowest distortion,Formation energy [eV/atom],Stability [eV/atom],Magnetic moment [mu_B],Volume per atom [A^3/atom],Band gap [eV],a [ang],b [ang],c [ang],alpha [deg],beta [deg],gamma [deg],Vacancy energy [eV/O atom],Octahedral Factor,Tolerance Factor,A Ionization Energy,B Ionization Energy,A Electronegativity,B Electronegativity,Goldschmidt Tolerance Factor
31,AgPaO3,Ag,Pa,0,element not in BV,element not in BV,1.28,0.91,rhombohedral,-2.326,-0.361,0,14.960999999999999,2.571,6.042999999999999,6.042999999999999,6.042999999999999,58.2,58.2,58.2,4.367,0.6740740741,0.8228720506999999,7.5760000000000005,5.89,1.93,1.5,0.8203663089
278,FeTlO3,Fe,Tl,0,3,3,0.78,0.89,orthorhombic,-1.146,0.14800000000000002,1,12.604000000000001,0.664,5.457999999999999,5.471,8.441,90.0,90.0,90.0,-5.325,0.6592592593,0.6723827875,7.87,6.108,1.83,1.62,0.6731409533
687,ReRbO3,Re,Rb,0,5,1,0.58,1.52,rhombohedral,-1.739,0.183,0,20.938000000000002,1.7530000000000001,6.531000000000001,6.531000000000001,6.531000000000001,62.8,62.8,62.8,-,1.1259259259,0.4755108319,7.88,4.177,1.9,0.82,0.479476516
772,SnPaO3,Sn,Pa,0,element not in BV,element not in BV,0.81,0.91,orthorhombic,-2.384,0.09,0.2,16.177,2.036,5.928999999999999,6.329,8.621,90.0,90.0,90.0,3.83,0.6740740741,0.6758188705,7.343999999999999,5.89,1.96,1.5,0.676496098
848,TlLuO3,Tl,Lu,0,not balanced,not balanced,1.7,0.86,orthorhombic,-2.366,0.083,0,13.522,0.9309999999999999,5.649,5.772,8.295,90.0,90.0,90.0,-2.715,0.637037037,0.9758713495999999,6.108,5.4259,1.62,1.27,0.9699252307999999
833,TiCaO3,Ti,Ca,0,not balanced,not balanced,0.74,1.0,orthorhombic,-3.201,0.16699999999999998,0,13.209000000000001,2.645,5.42,5.54,8.799,90.0,90.0,90.0,-,0.7407407407,0.6288736905,6.82,6.1129999999999995,1.54,1.0,0.6305035466
202,CsTaO3,Cs,Ta,0,1,5,1.88,0.64,tetragonal,-2.7960000000000003,0.049,0,16.951,2.565,3.905,3.905,5.558,90.0,90.0,90.0,-,0.47407407409999996,1.1477160318000001,3.8939999999999997,7.89,0.79,1.5,1.1369167854
368,HoGaO3,Ho,Ga,0,3,3,1.12,0.62,orthorhombic,-2.978,0.02,0,10.94,4.1080000000000005,5.239,5.542000000000001,7.5360000000000005,90.0,90.0,90.0,4.388,0.4592592593,0.8865755073999999,6.018,5.999,1.23,1.81,0.8821332122
423,LaNdO3,La,Nd,0,3,3,1.36,0.98,cubic,-2.8710000000000004,0.7959999999999999,0,17.976,1.024,4.479,4.479,4.479,90.0,90.0,90.0,3.701,0.7259259259,0.8224289172,5.58,5.53,1.1,1.14,0.8200061832
340,HfBeO3,Hf,Be,0,4,2,0.83,0.45,cubic,-2.7260000000000004,0.764,0,7.939,1.19,3.411,3.411,3.411,90.0,90.0,90.0,4.212,0.3333333333,0.8563848794,6.65,9.322000000000001,1.3,1.57,0.8523503362
71,BNbO3,B,Nb,0,1,5,0.27,0.64,cubic,-1.19,1.383,-0.001,12.499,1.744,3.968,3.968,3.968,90.0,90.0,90.0,4.31,0.47407407409999996,0.5756346661,8.298,6.88,2.04,1.6,0.5788570219
669,PuRbO3,Pu,Rb,0,element not in BV,element not in BV,0.96,1.52,orthorhombic,-2.315,0.314,0.6,18.852,0.598,5.585,5.712000000000001,11.818,90.0,90.0,90.0,-,1.1259259259,0.5691347263000001,6.06,4.177,1.28,0.82,0.5714972615
712,ScAcO3,Sc,Ac,0,element not in BV,element not in BV,0.87,1.12,orthorhombic,-3.5069999999999997,0.255,0,16.090999999999998,3.5069999999999997,5.962000000000001,6.047000000000001,8.927,90.0,90.0,90.0,-6.533,0.8296296296,0.6355372689,6.54,5.17,1.36,1.1,0.6369572989
652,PtCaO3,Pt,Ca,0,element not in BV,element not in BV,0.67,1.0,rhombohedral,-1.463,0.38,-0.001,14.440999999999999,0.544,6.031000000000001,6.031000000000001,6.031000000000001,57.0,57.0,57.0,-10.427,0.7407407407,0.6078109353,9.0,6.1129999999999995,2.28,1.0,0.6098795988
688,RhAcO3,Rh,Ac,0,element not in BV,element not in BV,0.61,1.12,orthorhombic,-1.964,0.37,0,15.415999999999999,0.3,5.787999999999999,6.016,8.855,90.0,90.0,90.0,-6.432,0.8296296296,0.5611049762,7.46,5.17,2.28,1.1,0.5640018374
931,YCrO3,Y,Cr,1,3,3,1.08,0.62,orthorhombic,-3.178,-0.033,0.6,11.195,2.6,5.281000000000001,5.577999999999999,7.6,90.0,90.0,90.0,4.248,0.4592592593,0.8722180093,6.38,6.766,1.22,1.66,0.8681310977
109,BiTlO3,Bi,Tl,0,3,3,1.38,0.89,orthorhombic,-1.1540000000000001,0.052000000000000005,-,14.87,1.0590000000000002,5.777,6.247000000000001,8.241,90.0,90.0,90.0,-1.519,0.6592592593,0.8617863896,7.289,6.108,2.02,1.62,0.8584091054999999
905,VCaO3,V,Ca,0,not balanced,not balanced,0.72,1.0,orthorhombic,-2.7260000000000004,0.175,0.2,13.001,1.207,5.507999999999999,5.518,8.554,90.0,90.0,90.0,-,0.7407407407,0.6228557604,6.74,6.1129999999999995,1.63,1.0,0.62461099
156,CePrO3,Ce,Pr,0,3,3,1.34,0.99,cubic,-2.697,0.852,0,18.434,0.879,4.5169999999999995,4.5169999999999995,4.5169999999999995,90.0,90.0,90.0,3.116,0.7333333333,0.812870616,5.54,5.46,1.12,1.13,0.8106579835
813,TcSnO3,Tc,Sn,0,element not in BV,element not in BV,0.6,0.69,cubic,-0.7559999999999999,0.927,1,13.115,0.5710000000000001,4.033,4.033,4.033,90.0,90.0,90.0,2.883,0.5111111111,0.6759108937999999,7.28,7.343999999999999,1.9,1.96,0.6766572069
767,SmYO3,Sm,Y,0,not balanced,not balanced,1.24,0.9,cubic,-3.003,0.752,0,15.62,1.744,4.275,4.275,4.275,90.0,90.0,90.0,2.084,0.6666666667,0.8139584726000001,5.64,6.38,1.17,1.22,0.8116356097
170,CoLaO3,Co,La,0,3,3,0.61,1.03,rhombohedral,-2.408,0.09699999999999999,-0.799,15.502,1.7,6.343,6.343,6.343,54.0,54.0,54.0,-,0.762962963,0.5823232316,7.86,5.58,1.88,1.1,0.5848907943
693,RhPrO3,Rh,Pr,0,3,3,0.67,0.99,orthorhombic,-1.925,0.39,-0.001,13.917,0.344,5.542000000000001,5.9110000000000005,8.498,90.0,90.0,90.0,-6.823,0.7333333333,0.6104084179,7.46,5.46,2.28,1.13,0.6124313963
676,RbKO3,Rb,K,0,not balanced,not balanced,1.72,1.38,orthorhombic,-1.053,0.09300000000000001,-,18.194000000000003,2.126,6.893,7.0760000000000005,7.459,90.0,90.0,90.0,-10.19,1.0222222222,0.795171362,4.177,4.341,0.82,0.82,0.7935874667
153,CeLaO3,Ce,La,0,3,3,1.34,1.03,cubic,-2.7260000000000004,0.89,0,18.764,0.48200000000000004,4.544,4.544,4.544,90.0,90.0,90.0,2.756,0.762962963,0.799208925,5.54,5.58,1.12,1.1,0.7973138191
564,NiLaO3,Ni,La,0,not balanced,not balanced,0.59,1.03,orthorhombic,-2.114,0.262,0.6,13.915,0.54,5.5729999999999995,5.896,8.469,90.0,90.0,90.0,-,0.762962963,0.5763811578,7.635,5.58,1.91,1.1,0.5790709854
587,NpPrO3,Np,Pr,0,element not in BV,element not in BV,0.98,0.92,cubic,-2.657,0.871,0.8,18.305,0.597,4.507,4.507,4.507,90.0,90.0,90.0,-,0.6814814815000001,0.7257968283,6.19,5.46,1.36,1.13,0.7253940255
290,GaPrO3,Ga,Pr,0,not balanced,not balanced,0.62,0.92,rhombohedral,-2.728,0.147,0,15.29,3.177,6.2989999999999995,6.2989999999999995,6.2989999999999995,54.2,54.2,54.2,-4.886,0.6814814815000001,0.6136565458,5.999,5.46,1.81,1.13,0.6156705595
14,AcIrO3,Ac,Ir,0,element not in BV,element not in BV,1.12,0.63,orthorhombic,-2.194,0.075,0,13.405,0.754,5.6160000000000005,5.907,8.082,90.0,90.0,90.0,1.277,0.4666666667,0.8820978533,5.17,9.1,1.1,2.2,0.8777877284000001
256,ErGdO3,Er,Gd,0,3,3,1.06,0.94,cubic,-2.7289999999999996,1.1159999999999999,0,16.005,0.8170000000000001,4.309,4.309,4.309,90.0,90.0,90.0,-0.434,0.6962962963,0.7441604116,6.101,6.15,1.24,1.2,0.7433686674
611,PbPaO3,Pb,Pa,0,element not in BV,element not in BV,1.49,0.91,orthorhombic,-2.41,-0.022000000000000002,0.2,16.651,1.858,6.053999999999999,6.297000000000001,8.736,90.0,90.0,90.0,-,0.6740740741,0.8885766631,7.416,5.89,2.33,1.5,0.8846487436
868,TmErO3,Tm,Er,0,not balanced,not balanced,1.05,0.89,cubic,-2.9139999999999997,1.0,0,14.878,1.306,4.206,4.206,4.206,90.0,90.0,90.0,0.816,0.6592592593,0.7576144084,6.184,6.101,1.25,1.24,0.7565116218000001
800,TaKO3,Ta,K,0,not balanced,not balanced,0.74,1.38,orthorhombic,-2.6839999999999997,0.23600000000000002,0,17.643,3.635,5.769,5.851,10.454,90.0,90.0,90.0,-21.785,1.0222222222,0.5413381585,7.89,4.341,1.5,0.82,0.5443196085
4,AcBiO3,Ac,Bi,0,element not in BV,element not in BV,1.12,0.9,orthorhombic,-2.5,0.027000000000000003,0,17.182000000000002,1.639,6.09,6.415,8.796,90.0,90.0,90.0,2.653,0.6666666667,0.7762461109000001,5.17,7.289,1.1,2.02,0.7747430820000001
766,SmVO3,Sm,V,1,2,4,1.32,0.58,orthorhombic,-3.2230000000000003,-0.057,0.4,11.864,1.105,5.398,5.695,7.718,90.0,90.0,90.0,4.238,0.4296296296,0.9782254434000001,5.64,6.74,1.17,1.63,0.9713790125
930,YCeO3,Y,Ce,0,3,3,1.08,1.01,cubic,-2.323,1.3419999999999999,0,18.662,0.389,4.5360000000000005,4.5360000000000005,4.5360000000000005,90.0,90.0,90.0,-2.979,0.7481481481000001,0.7280802874,6.38,5.54,1.22,1.12,0.7276451523999999
491,MnCeO3,Mn,Ce,0,2,4,0.96,0.87,orthorhombic,-2.529,0.319,0.8,14.238,0.315,5.784,5.808,8.475,90.0,90.0,90.0,-3.48,0.6444444443999999,0.7357732723,7.435,5.54,1.55,1.12,0.7351418518
245,ErAlO3,Er,Al,1,3,3,1.06,0.54,orthorhombic,-3.602,-0.022000000000000002,0,10.062000000000001,6.221,5.131,5.341,7.343,90.0,90.0,90.0,6.255,0.4,0.9016546787,6.101,5.986000000000001,1.24,1.61,0.8966405576
234,DyInO3,Dy,In,0,not balanced,not balanced,1.08,0.8,cubic,-2.146,0.701,0,13.544,1.635,4.0760000000000005,4.0760000000000005,4.0760000000000005,90.0,90.0,90.0,2.656,0.5925925926,0.7991951062,5.94,5.7860000000000005,1.22,1.78,0.7971021897
119,CaPuO3,Ca,Pu,0,element not in BV,element not in BV,1.34,0.83,orthorhombic,-3.343,-0.109,0.8,14.65,1.9280000000000002,5.794,6.021,8.399,90.0,90.0,90.0,-,0.6148148148,0.8725308447,6.1129999999999995,6.06,1.0,1.28,0.868821785
485,MgTiO3,Mg,Ti,0,2,4,0.89,0.61,orthorhombic,-3.094,0.094,0,9.849,2.296,5.044,5.28,7.396,90.0,90.0,90.0,3.878,0.4518518519,0.8081220356000001,7.646,6.82,1.31,1.54,0.8056092184
915,VPrO3,V,Pr,0,2,4,0.79,0.85,orthorhombic,-2.888,0.292,0.4,14.118,1.315,5.723,5.819,8.479,90.0,90.0,90.0,-7.01,0.6296296296,0.6878220508,6.74,5.46,1.63,1.13,0.6882506004000001
385,In2O3,In,In,0,not balanced,not balanced,0.92,0.8,orthorhombic,-1.7380000000000002,0.106,-,12.562999999999999,0.753,5.4670000000000005,5.603,8.203,90.0,90.0,90.0,-3.59,0.5925925926,0.7465732062,5.7860000000000005,5.7860000000000005,1.78,1.78,0.745676242
371,HoInO3,Ho,In,0,not balanced,not balanced,1.12,0.8,cubic,-2.123,0.736,0,13.674000000000001,1.521,4.0889999999999995,4.0889999999999995,4.0889999999999995,90.0,90.0,90.0,2.645,0.5925925926,0.8123505812,6.018,5.7860000000000005,1.23,1.78,0.8099586766
130,CdMnO3,Cd,Mn,0,2,4,1.31,0.53,orthorhombic,-1.514,0.1,0.6,10.495999999999999,0.22899999999999998,5.2589999999999995,5.337999999999999,7.478,90.0,90.0,90.0,0.247,0.39259259259999996,1.0004808713,8.993,7.435,1.69,1.55,0.9928805062
526,NbAcO3,Nb,Ac,0,element not in BV,element not in BV,0.77,1.12,rhombohedral,-2.7689999999999997,0.268,0,17.012,0.44799999999999995,6.029,6.029,6.029,64.5,64.5,64.5,-1.015,0.8296296296,0.606909464,6.88,5.17,1.6,1.1,0.608897506
181,CoYO3,Co,Y,0,3,3,0.61,0.9,rhombohedral,-2.4130000000000003,0.11800000000000001,0.8,13.470999999999998,1.7630000000000001,5.999,5.999,5.999,54.9,54.9,54.9,-4.168,0.6666666667,0.6159685738,7.86,6.38,1.88,1.22,0.6179498392
811,TcHfO3,Tc,Hf,0,element not in BV,element not in BV,0.6,0.71,cubic,-1.925,0.888,1,13.507,0.925,4.072,4.072,4.072,90.0,90.0,90.0,1.949,0.5259259259000001,0.6693486521,7.28,6.65,1.9,1.3,0.6702433945
764,SmTlO3,Sm,Tl,0,not balanced,not balanced,1.24,1.2,orthorhombic,-2.247,0.07200000000000001,0,14.526,1.2570000000000001,5.684,6.042999999999999,8.458,90.0,90.0,90.0,0.884,0.8888888889,0.7181986523,5.64,6.108,1.17,1.62,0.7179853471
900,VAcO3,V,Ac,0,element not in BV,element not in BV,0.72,1.12,orthorhombic,-2.93,0.29100000000000004,0.4,15.507,1.198,5.843999999999999,5.912000000000001,8.977,90.0,90.0,90.0,-,0.8296296296,0.5925955615999999,6.74,5.17,1.63,1.1,0.5948676096
366,HoErO3,Ho,Er,0,not balanced,not balanced,1.12,0.89,cubic,-2.975,0.91,0,14.905999999999999,1.68,4.208,4.208,4.208,90.0,90.0,90.0,1.354,0.6592592593,0.7797114953000001,6.018,6.101,1.23,1.24,0.7781262395999999
717,ScCrO3,Sc,Cr,0,1,5,0.87,0.49,cubic,-2.4859999999999998,0.6579999999999999,0.6,10.702,0.436,3.7680000000000002,3.7680000000000002,3.7680000000000002,90.0,90.0,90.0,2.781,0.36296296299999997,0.8531397034,6.54,6.766,1.36,1.66,0.8492763986
464,Lu2O3,Lu,Lu,0,3,3,1.03,0.86,cubic,-3.0039999999999996,0.9570000000000001,0,14.132,0.853,4.1339999999999995,4.1339999999999995,4.1339999999999995,90.0,90.0,90.0,1.406,0.637037037,0.7614996104999999,5.4259,5.4259,1.27,1.27,0.7602962293000001
774,SnSiO3,Sn,Si,0,2,4,0.81,0.4,tetragonal,-2.097,0.36200000000000004,-,11.247,0.865,3.477,3.477,4.652,90.0,90.0,90.0,5.029,0.2962962963,0.8727717985,7.343999999999999,8.151,1.96,1.9,0.8681699925
268,FeCeO3,Fe,Ce,0,2,4,0.92,0.87,orthorhombic,-2.463,0.20600000000000002,1,14.287,1.584,5.697,5.723,8.764,90.0,90.0,90.0,-6.169,0.6444444443999999,0.7230326095999999,7.87,5.54,1.83,1.12,0.7226818204000001
596,PaAuO3,Pa,Au,0,element not in BV,element not in BV,0.95,0.93,orthorhombic,-2.068,0.026000000000000002,0,16.244,2.044,6.417000000000001,6.962999999999999,7.271,90.0,90.0,90.0,-2.825,0.6888888889,0.7133094722,5.89,9.225,1.5,2.54,0.7131763673
801,TaLiO3,Ta,Li,0,not balanced,not balanced,0.74,0.76,orthorhombic,-2.8280000000000003,0.138,0,9.486,2.991,4.748,5.105,7.827999999999999,90.0,90.0,90.0,-2.44,0.5629629629999999,0.7004043472,7.89,5.392,1.5,0.98,0.7005594962
732,ScSmO3,Sc,Sm,0,not balanced,not balanced,0.87,0.96,orthorhombic,-3.556,0.204,0,13.929,4.072,5.706,5.84,8.36,90.0,90.0,90.0,-3.864,0.7111111111,0.6795571663,6.54,5.64,1.36,1.17,0.6801408445999999
172,CoNdO3,Co,Nd,0,3,3,0.61,0.98,rhombohedral,-2.336,0.122,0.8,14.725,1.597,6.1739999999999995,6.1739999999999995,6.1739999999999995,55.1,55.1,55.1,-,0.7259259259,0.5948194383,7.86,5.53,1.88,1.14,0.597178416
521,NaSmO3,Na,Sm,0,not balanced,not balanced,1.39,0.96,orthorhombic,-2.245,0.185,0,13.5,2.7439999999999998,6.111000000000001,6.245,7.075,90.0,90.0,90.0,-1.399,0.7111111111,0.8387327188,5.138999999999999,5.64,0.93,1.17,0.8359440337
740,SiNaO3,Si,Na,0,not balanced,not balanced,0.4,1.02,orthorhombic,-2.283,0.226,-,11.325,0.583,4.918,5.456,8.442,90.0,90.0,90.0,-14.205,0.7555555556,0.5221252604,8.151,5.138999999999999,1.9,0.93,0.5259471926
209,CuLaO3,Cu,La,0,not balanced,not balanced,0.68,1.03,rhombohedral,-2.025,0.239,0.4,15.024000000000001,0.263,6.195,6.195,6.195,55.4,55.4,55.4,-3.569,0.762962963,0.6031204898,7.726,5.58,1.9,1.1,0.6052601255
648,PrTmO3,Pr,Tm,0,3,3,1.18,0.88,orthorhombic,-3.7289999999999996,0.025,0,14.447000000000001,5.007,5.763,6.005,8.349,90.0,90.0,90.0,4.856,0.6518518519,0.802233254,5.46,6.184,1.13,1.25,0.8001471470999999
92,BeSiO3,Be,Si,0,2,4,0.45,0.4,cubic,-1.794,1.2429999999999999,-,8.185,0.35200000000000004,3.446,3.446,3.446,90.0,90.0,90.0,4.114,0.2962962963,0.7273098320999999,9.322000000000001,8.151,1.57,1.9,0.7267486362000001
421,LaLiO3,La,Li,0,not balanced,not balanced,1.36,0.76,orthorhombic,-2.263,0.275,0.4,11.446,0.349,5.296,5.689,7.598,90.0,90.0,90.0,-0.623,0.5629629629999999,0.9081797995,5.58,5.392,1.1,0.98,0.9035253315
43,AlGdO3,Al,Gd,0,3,3,0.54,0.94,rhombohedral,-3.3160000000000003,0.253,0,13.622,3.807,6.086,6.086,6.086,53.8,53.8,53.8,-6.621,0.6962962963,0.5835946797,5.986000000000001,6.15,1.61,1.2,0.5862338271
785,SrPbO3,Sr,Pb,1,2,4,1.44,0.78,orthorhombic,-1.995,-0.043,-,14.902000000000001,1.042,5.881,6.041,8.389,90.0,90.0,90.0,1.78,0.5777777778000001,0.9262102908,5.695,7.416,0.95,2.33,0.9211849809999999
166,CoCeO3,Co,Ce,0,3,3,0.61,1.01,orthorhombic,-2.281,0.141,0.8,15.922,1.578,5.5489999999999995,6.416,8.943,90.0,90.0,90.0,-5.095,0.7481481481000001,0.5872581742,7.86,5.54,1.88,1.12,0.5897446598
354,HgSnO3,Hg,Sn,0,2,4,1.14,0.69,rhombohedral,-1.298,0.055999999999999994,-,12.864,0.23,5.7,5.7,5.7,59.2,59.2,59.2,0.557,0.5111111111,0.8630862182,10.437000000000001,7.343999999999999,2.0,1.96,0.8593546527
865,TmCrO3,Tm,Cr,1,3,3,1.05,0.62,orthorhombic,-3.2289999999999996,-0.022000000000000002,0.6,10.864,2.496,5.209,5.541,7.528,90.0,90.0,90.0,4.031,0.4592592593,0.8614498856999999,6.184,6.766,1.25,1.66,0.8576295118
707,SbPaO3,Sb,Pa,0,element not in BV,element not in BV,0.68,0.91,orthorhombic,-2.1430000000000002,0.242,0,16.276,1.179,6.35,6.358,8.062000000000001,90.0,90.0,90.0,2.381,0.6740740741,0.6351445866,8.641,5.89,2.05,1.5,0.6367022099
516,NaNbO3,Na,Nb,1,1,5,1.39,0.64,orthorhombic,-2.6860000000000004,0.019,0,11.887,2.204,5.47,5.568,7.806,90.0,90.0,90.0,5.195,0.47407407409999996,0.9736043118000001,5.138999999999999,6.88,0.93,1.6,0.9670725095999999
605,PaPbO3,Pa,Pb,0,element not in BV,element not in BV,0.95,0.99,orthorhombic,-2.224,0.18600000000000003,0.2,17.36,1.193,5.806,6.046,9.891,90.0,90.0,90.0,-1.697,0.7333333333,0.6950194858,5.89,7.416,1.5,2.33,0.6952723581
154,CeLuO3,Ce,Lu,1,3,3,1.34,0.86,orthorhombic,-3.736,0.005,0,14.375,5.074,5.767,5.994,8.318,90.0,90.0,90.0,5.161,0.637037037,0.8606865345999999,5.54,5.4259,1.12,1.27,0.8572887523999999
477,MgMnO3,Mg,Mn,0,2,4,0.89,0.53,orthorhombic,-2.219,0.077,0.6,9.249,0.705,4.9510000000000005,5.183,7.207999999999999,90.0,90.0,90.0,0.004,0.39259259259999996,0.8425102073999999,7.646,7.435,1.31,1.55,0.8390023466
535,NbRbO3,Nb,Rb,0,not balanced,not balanced,0.77,1.52,orthorhombic,-2.5380000000000003,0.136,0,19.351,3.347,6.027,6.082999999999999,10.556,90.0,90.0,90.0,-21.272,1.1259259259,0.5223227790999999,6.88,4.177,1.6,0.82,0.5254868888
29,AgNbO3,Ag,Nb,1,1,5,1.28,0.64,rhombohedral,-2.009,0.043,0,12.263,1.2690000000000001,5.611000000000001,5.611000000000001,5.611000000000001,59.2,59.2,59.2,4.672,0.47407407409999996,0.9345180073,7.5760000000000005,6.88,1.93,1.6,0.9289442027
844,TlGaO3,Tl,Ga,0,3,3,0.98,0.62,orthorhombic,-1.454,0.065,-,11.272,0.5579999999999999,5.316,5.457000000000001,7.772,90.0,90.0,90.0,-1.757,0.4592592593,0.836324264,6.108,5.999,1.62,1.81,0.8331258115000001
840,TiSrO3,Ti,Sr,0,not balanced,not balanced,0.74,1.18,orthorhombic,-3.182,0.171,0.001,15.27,2.843,5.607,5.726,9.512,90.0,90.0,90.0,-11.834,0.8740740740999999,0.5841316888,6.82,5.695,1.54,0.95,0.5865149270000001
852,TlPaO3,Tl,Pa,0,element not in BV,element not in BV,1.7,0.91,cubic,-2.563,-0.358,0,17.211,3.3989999999999996,4.415,4.415,4.415,90.0,90.0,90.0,5.8,0.6740740741,0.9542812755,6.108,5.89,1.62,1.5,0.9489311782
226,DyCrO3,Dy,Cr,1,3,3,1.08,0.62,orthorhombic,-3.2039999999999997,-0.038,0.6,11.115,2.524,5.265,5.569,7.582000000000001,90.0,90.0,90.0,4.239,0.4592592593,0.8722180093,5.94,6.766,1.22,1.66,0.8681310977
823,ThBaO3,Th,Ba,0,4,2,1.21,1.35,orthorhombic,-3.345,0.275,0,19.059,2.7089999999999996,6.7989999999999995,6.829,8.21,90.0,90.0,90.0,-2.473,1.0,0.6704419851,6.08,5.212000000000001,1.3,0.89,0.6711086178
384,InCsO3,In,Cs,0,not balanced,not balanced,0.92,1.67,orthorhombic,-0.889,0.609,-,17.215,0.21600000000000003,4.859,5.957000000000001,11.895,90.0,90.0,90.0,-,1.2370370370000001,0.5315007925,5.7860000000000005,3.8939999999999997,1.78,0.79,0.5343608249
229,DyErO3,Dy,Er,0,not balanced,not balanced,1.08,0.89,cubic,-3.0039999999999996,0.8690000000000001,0,14.940999999999999,1.781,4.212,4.212,4.212,90.0,90.0,90.0,1.611,0.6592592593,0.7670845884999999,5.94,6.101,1.22,1.24,0.7657750294
664,PuInO3,Pu,In,0,element not in BV,element not in BV,0.96,0.8,cubic,-2.13,0.609,1,13.925,0.593,4.114,4.114,4.114,90.0,90.0,90.0,-,0.5925925926,0.7597286812,6.06,5.7860000000000005,1.28,1.78,0.7585327289
462,LuHoO3,Lu,Ho,0,3,3,1.03,0.9,cubic,-2.8080000000000003,1.11,0,15.148,0.884,4.231,4.231,4.231,90.0,90.0,90.0,-0.008,0.6666666667,0.7479618397,5.4259,6.018,1.27,1.23,0.7470736862
444,LiPuO3,Li,Pu,0,element not in BV,element not in BV,0.92,0.83,orthorhombic,-2.653,-0.046,0.6,12.122,1.5919999999999999,5.445,5.519,8.067,90.0,90.0,90.0,0.694,0.6148148148,0.7362992629999999,5.392,6.06,0.98,1.28,0.735644723
608,PbBaO3,Pb,Ba,0,not balanced,not balanced,1.49,1.35,orthorhombic,-1.723,0.22399999999999998,-,19.236,0.36700000000000005,6.153,6.322,9.889,90.0,90.0,90.0,-1.982,1.0,0.7437715772,7.416,5.212000000000001,2.33,0.89,0.7431049446
80,BaPtO3,Ba,Pt,0,element not in BV,element not in BV,1.61,0.67,orthorhombic,-1.587,0.019,0,13.759,0.257,5.742999999999999,5.83,8.218,90.0,90.0,90.0,1.235,0.49629629630000005,1.0361564714,5.212000000000001,9.0,0.89,2.28,1.0282084112999998
198,CrTlO3,Cr,Tl,0,not balanced,not balanced,0.57,1.2,orthorhombic,-1.402,0.307,0.6,12.364,0.634,5.379,5.506,8.35,90.0,90.0,90.0,-5.53,0.8888888889,0.5324098117,6.766,6.108,1.66,1.62,0.5357693688