,Chemical formula,A,B,In literature,Valence A,Valence B,Radius A [ang],Radius B [ang],Lowest distortion,Formation energy [eV/atom],Stability [eV/atom],Magnetic moment [mu_B],Volume per atom [A^3/atom],Band gap [eV],a [ang],b [ang],c [ang],alpha [deg],beta [deg],gamma [deg],Vacancy energy [eV/O atom],Octahedral Factor,Tolerance Factor,A Ionization Energy,B Ionization Energy,A Electronegativity,B Electronegativity,Goldschmidt Tolerance Factor
242,DyVO3,Dy,V,1,2,4,1.19,0.58,orthorhombic,-3.2710000000000004,-0.03,0.4,11.415999999999999,1.112,5.296,5.659,7.617999999999999,90.0,90.0,90.0,3.989,0.4296296296,0.9305964892,5.94,6.74,1.22,1.63,0.9249528096999999
853,TlPrO3,Tl,Pr,0,not balanced,not balanced,1.7,0.92,orthorhombic,-2.14,0.11699999999999999,0,15.939,0.971,5.997999999999999,6.07,8.756,90.0,90.0,90.0,-2.864,0.6814814815000001,0.9500773932,6.108,5.46,1.62,1.13,0.9448409576000001
347,HfSnO3,Hf,Sn,0,not balanced,not balanced,0.83,0.69,orthorhombic,-2.458,0.461,0,14.982000000000001,0.9740000000000001,5.8420000000000005,6.01,8.533999999999999,90.0,90.0,90.0,0.334,0.5111111111,0.7556337171999999,6.65,7.343999999999999,1.3,1.96,0.7544727857
55,AlSmO3,Al,Sm,0,3,3,0.54,0.96,orthorhombic,-3.267,0.27,0,12.728,3.072,5.45,5.462000000000001,8.551,90.0,90.0,90.0,-6.818,0.7111111111,0.5785419118999999,5.986000000000001,5.64,1.61,1.17,0.5812657439
25,AcTmO3,Ac,Tm,0,element not in BV,element not in BV,1.12,0.96,orthorhombic,-3.772,-0.016,0,15.360999999999999,4.565,5.94,6.0889999999999995,8.494,90.0,90.0,90.0,5.793,0.7111111111,0.7560838743000001,5.17,6.184,1.1,1.25,0.7550462240000001
212,CuPaO3,Cu,Pa,0,element not in BV,element not in BV,0.68,0.91,rhombohedral,-2.425,-0.243,0,13.659,2.633,5.994,5.994,5.994,55.6,55.6,55.6,4.128,0.6740740741,0.6351445866,7.726,5.89,1.9,1.5,0.6367022099
190,CrNdO3,Cr,Nd,0,not balanced,not balanced,0.57,0.98,rhombohedral,-2.7569999999999997,0.364,0.6,14.921,1.526,6.143,6.143,6.143,56.1,56.1,56.1,-5.414,0.7259259259,0.582680266,6.766,5.53,1.66,1.14,0.5852942685
126,CdBaO3,Cd,Ba,0,not balanced,not balanced,1.31,1.35,orthorhombic,-1.535,0.23,-,17.186,0.843,6.481,6.492000000000001,8.169,90.0,90.0,90.0,-6.3,1.0,0.6966311251999999,8.993,5.212000000000001,1.69,0.89,0.6968215916
494,MnHfO3,Mn,Hf,0,2,4,0.96,0.71,orthorhombic,-3.093,0.026000000000000002,1,11.554,3.3480000000000003,5.331,5.551,7.809,90.0,90.0,90.0,3.919,0.5259259259000001,0.7929207109,7.435,6.65,1.55,1.3,0.7908872055
630,PrCrO3,Pr,Cr,1,3,3,1.18,0.62,orthorhombic,-3.1039999999999996,-0.075,0.6,11.895,2.237,5.462000000000001,5.596,7.782,90.0,90.0,90.0,4.766,0.4592592593,0.9081117545,5.46,6.766,1.13,1.66,0.9031363839
298,GdAlO3,Gd,Al,1,3,3,1.11,0.54,orthorhombic,-3.569,-0.040999999999999995,0,10.339,5.604,5.221,5.332999999999999,7.428,90.0,90.0,90.0,6.35,0.4,0.9203612073,6.15,5.986000000000001,1.2,1.61,0.9148649592
303,GdDyO3,Gd,Dy,0,3,3,1.11,0.91,cubic,-2.964,0.858,0,15.526,1.71,4.266,4.266,4.266,90.0,90.0,90.0,1.644,0.6740740741,0.7696826025,6.15,5.94,1.2,1.22,0.7683281475
257,ErHoO3,Er,Ho,0,3,3,1.06,0.9,cubic,-2.897,0.988,0,15.123,1.411,4.229,4.229,4.229,90.0,90.0,90.0,0.759,0.6666666667,0.7573899301000001,6.101,6.018,1.24,1.23,0.7562968181
445,LiSbO3,Li,Sb,0,1,5,0.92,0.6,rhombohedral,-1.906,0.049,-,10.472000000000001,2.403,5.371,5.371,5.371,58.1,58.1,58.1,2.451,0.44444444439999997,0.8231448171,5.392,8.641,0.98,2.05,0.8202438662
155,CeNdO3,Ce,Nd,0,3,3,1.34,0.98,cubic,-2.7760000000000002,0.795,0,17.971,1.055,4.479,4.479,4.479,90.0,90.0,90.0,3.435,0.7259259259,0.8163593311,5.54,5.53,1.12,1.14,0.8140641094
780,SrCrO3,Sr,Cr,0,2,4,1.44,0.55,orthorhombic,-2.5610000000000004,0.040999999999999995,0.4,11.412,0.777,5.457000000000001,5.457000000000001,7.664,90.0,90.0,90.0,1.791,0.40740740740000003,1.038330484,5.695,6.766,0.95,1.66,1.0298375684999999
65,AsRbO3,As,Rb,0,not balanced,not balanced,0.52,1.52,orthorhombic,-1.7280000000000002,-0.19899999999999998,-,16.722,3.147,4.944,5.705,11.859000000000002,90.0,90.0,90.0,-14.179,1.1259259259,0.4607281118,9.81,4.177,2.18,0.82,0.46494692460000003
300,GdBaO3,Gd,Ba,0,not balanced,not balanced,1.11,1.35,orthorhombic,-2.8089999999999997,0.268,0.201,18.822,0.619,6.507000000000001,6.792999999999999,8.517000000000001,90.0,90.0,90.0,-6.988,1.0,0.6442528451,6.15,5.212000000000001,1.2,0.89,0.6453956439
925,WCsO3,W,Cs,0,not balanced,not balanced,0.63,1.67,rhombohedral,-1.921,0.284,0.2,24.230999999999998,1.548,6.994,6.994,6.994,60.1,60.1,60.1,-,1.2370370370000001,0.4635998102,7.98,3.8939999999999997,2.36,0.79,0.4675657218
883,UAlO3,U,Al,0,3,3,1.03,0.54,orthorhombic,-3.392,-0.011000000000000001,0.6,10.770999999999999,1.4280000000000002,5.34,5.349,7.54,90.0,90.0,90.0,4.383,0.4,0.8904307615000001,6.05,5.986000000000001,1.38,1.61,0.8857059166
850,TlNdO3,Tl,Nd,0,not balanced,not balanced,1.7,0.98,orthorhombic,-2.164,0.115,0,15.638,1.014,5.955,6.0360000000000005,8.702,90.0,90.0,90.0,-3.035,0.7259259259,0.9256118809999999,6.108,5.53,1.62,1.14,0.9210214377
613,PbPuO3,Pb,Pu,0,element not in BV,element not in BV,1.49,0.83,orthorhombic,-2.54,-0.055,0.8,15.812000000000001,1.37,5.977,6.1610000000000005,8.586,90.0,90.0,90.0,-,0.6148148148,0.9211849809999999,7.416,6.06,2.33,1.28,0.9163850214
311,GdLuO3,Gd,Lu,0,3,3,1.11,0.86,cubic,-3.2030000000000003,0.674,0,14.345,1.993,4.155,4.155,4.155,90.0,90.0,90.0,4.72,0.637037037,0.7870962361,6.15,5.4259,1.2,1.27,0.7853265579
960,ZnSmO3,Zn,Sm,0,not balanced,not balanced,0.9,0.96,orthorhombic,-2.311,0.19899999999999998,0.2,13.484000000000002,0.5429999999999999,5.4510000000000005,5.7589999999999995,8.59,90.0,90.0,90.0,-4.454,0.7111111111,0.6887403713,9.394,5.64,1.65,1.17,0.6891294901
484,MgSnO3,Mg,Sn,0,2,4,0.89,0.69,cubic,-1.725,0.625,-,12.762,1.143,3.9960000000000004,3.9960000000000004,3.9960000000000004,90.0,90.0,90.0,2.673,0.5111111111,0.7764309754000001,7.646,7.343999999999999,1.31,1.96,0.7747725019
433,LiAcO3,Li,Ac,0,element not in BV,element not in BV,0.92,1.12,orthorhombic,-2.369,0.10300000000000001,0,13.879000000000001,2.806,5.9,6.224,7.559,90.0,90.0,90.0,-0.964,0.8296296296,0.6498511714,5.392,5.17,0.98,1.1,0.6509871953999999
142,CeBO3,Ce,B,0,4,2,1.14,0.27,cubic,-2.358,0.9159999999999999,-0.001,9.283,1.9340000000000002,3.594,3.594,3.594,90.0,90.0,90.0,4.741,0.2,1.0868493118,5.54,8.298,1.12,2.04,1.075479775
282,GaGdO3,Ga,Gd,0,not balanced,not balanced,0.62,0.94,rhombohedral,-2.822,0.17600000000000002,0,13.7,3.228,5.996,5.996,5.996,55.6,55.6,55.6,-4.671,0.6962962963,0.6082970999999999,5.999,6.15,1.81,1.2,0.6104084179
411,LaCrO3,La,Cr,1,3,3,1.36,0.62,orthorhombic,-3.168,-0.071,0.6,12.024000000000001,2.07,5.506,5.586,7.819,90.0,90.0,90.0,4.845,0.4592592593,0.9727204959,5.58,6.766,1.1,1.66,0.966145899
279,GaAcO3,Ga,Ac,0,element not in BV,element not in BV,0.62,1.12,orthorhombic,-2.8560000000000003,0.057,0,15.888,2.9960000000000004,4.54,6.777,10.328,90.0,90.0,90.0,-2.981,0.8296296296,0.5639677567,5.999,5.17,1.81,1.1,0.5668078167
204,CuAcO3,Cu,Ac,0,element not in BV,element not in BV,0.68,1.12,rhombohedral,-2.023,0.218,0.401,16.494,0.297,6.531000000000001,6.531000000000001,6.531000000000001,53.1,53.1,53.1,-2.485,0.8296296296,0.5811444396000001,7.726,5.17,1.9,1.1,0.5836436924
775,Sn2O3,Sn,Sn,0,not balanced,not balanced,0.81,0.69,orthorhombic,-1.6,0.187,-,13.411,1.158,5.682,5.776,8.173,90.0,90.0,90.0,3.443,0.5111111111,0.7487012976999999,7.343999999999999,7.343999999999999,1.96,1.96,0.7477062136
911,VNaO3,V,Na,0,not balanced,not balanced,0.72,1.02,orthorhombic,-2.233,0.242,0,12.446,2.123,5.305,5.535,8.478,90.0,90.0,90.0,-10.109,0.7555555556,0.6175995937,6.74,5.138999999999999,1.63,0.93,0.6194489157999999
158,CeRhO3,Ce,Rh,0,3,3,1.34,0.67,orthorhombic,-2.2880000000000003,-0.061,0,12.630999999999998,0.6709999999999999,5.468999999999999,5.852,7.893,90.0,90.0,90.0,1.093,0.49629629630000005,0.9416421987000001,5.54,7.46,1.12,2.28,0.935977092
709,SbScO3,Sb,Sc,0,3,3,0.76,0.75,cubic,-2.084,0.61,0,13.030999999999999,0.8340000000000001,4.024,4.024,4.024,90.0,90.0,90.0,0.35,0.5555555556,0.7104739563,8.641,6.54,2.05,1.36,0.7103956498999999
616,PbThO3,Pb,Th,0,2,4,1.49,0.94,orthorhombic,-2.898,0.17300000000000001,0,17.337,2.938,6.109,6.404,8.863,90.0,90.0,90.0,3.431,0.6962962963,0.8769359207999999,7.416,6.08,2.33,1.3,0.873307093
70,AuUO3,Au,U,0,element not in BV,element not in BV,0.93,0.85,orthorhombic,-2.267,0.237,0.2,14.995999999999999,1.7530000000000001,5.813,6.082000000000001,8.484,90.0,90.0,90.0,2.881,0.6296296296,0.732819755,9.225,6.05,2.54,1.38,0.7322483556
22,AcScO3,Ac,Sc,0,element not in BV,element not in BV,1.12,0.75,orthorhombic,-3.762,-0.068,0,13.854000000000001,4.099,5.782,5.843999999999999,8.201,90.0,90.0,90.0,6.193,0.5555555556,0.8316922617,5.17,6.54,1.1,1.36,0.8287949249
18,AcPrO3,Ac,Pr,0,element not in BV,element not in BV,1.12,0.92,cubic,-2.9530000000000003,0.625,0,18.704,1.649,4.539,4.539,4.539,90.0,90.0,90.0,4.449,0.6814814815000001,0.7694069381,5.17,5.46,1.1,1.13,0.7680642623
440,LiNdO3,Li,Nd,0,not balanced,not balanced,0.92,0.98,orthorhombic,-2.335,0.187,0,12.423,2.55,5.7620000000000005,5.941,7.257999999999999,90.0,90.0,90.0,-2.224,0.7259259259,0.6888980229,5.392,5.53,0.98,1.14,0.6892805598
563,NiCeO3,Ni,Ce,0,not balanced,not balanced,0.59,0.94,orthorhombic,-2.011,0.28300000000000003,0.6,13.989,0.489,5.591,5.897,8.485,90.0,90.0,90.0,-,0.6962962963,0.5990336924,7.635,5.54,1.91,1.12,0.6013429464
906,VCdO3,V,Cd,0,not balanced,not balanced,0.72,0.95,orthorhombic,-1.8430000000000002,0.19,0.2,12.529000000000002,0.20600000000000002,5.335,5.416,8.671,90.0,90.0,90.0,-7.137,0.7037037037,0.6363961031,6.74,8.993,1.63,1.69,0.6379005856000001
261,ErRbO3,Er,Rb,0,not balanced,not balanced,1.06,1.52,orthorhombic,-2.146,0.371,0,17.854,1.3159999999999998,6.105,6.145,9.519,90.0,90.0,90.0,-3.596,1.1259259259,0.5937725933,6.101,4.177,1.24,0.82,0.5957132472
436,LiBiO3,Li,Bi,0,1,5,0.92,0.76,orthorhombic,-1.445,0.037000000000000005,-,11.687999999999999,0.7809999999999999,5.414,5.501,7.849,90.0,90.0,90.0,0.067,0.5629629629999999,0.7607262526999999,5.392,7.289,0.98,2.02,0.7594850612999999
938,YHoO3,Y,Ho,0,3,3,1.08,0.9,cubic,-2.963,0.878,0,15.248,1.662,4.24,4.24,4.24,90.0,90.0,90.0,1.406,0.6666666667,0.7636753237,6.38,6.018,1.22,1.23,0.7624455728
454,LuCoO3,Lu,Co,0,3,3,1.03,0.61,orthorhombic,-2.573,0.035,0,10.328,1.41,5.114,5.546,7.2829999999999995,90.0,90.0,90.0,1.89,0.4518518519,0.8586296629000001,5.4259,7.86,1.27,1.88,0.854860437
682,RbTaO3,Rb,Ta,0,1,5,1.72,0.64,tetragonal,-2.824,0.048,0,13.367,2.228,4.027,4.027,4.121,90.0,90.0,90.0,6.335,0.47407407409999996,1.0908632252,4.177,7.89,0.82,1.5,1.0814574301
291,GaPuO3,Ga,Pu,0,element not in BV,element not in BV,0.62,0.83,orthorhombic,-2.799,0.096,1,15.100999999999999,1.347,5.3629999999999995,6.069,9.28,90.0,90.0,90.0,0.763,0.6148148148,0.6389909903000001,5.999,6.06,1.81,1.28,0.6405182502000001
175,CoRbO3,Co,Rb,0,not balanced,not balanced,0.9,1.52,rhombohedral,-1.077,0.141,0.4,18.998,1.641,6.419,6.419,6.419,60.7,60.7,60.7,-,1.1259259259,0.5543520062,7.86,4.177,1.88,0.82,0.5569676701
323,GeCdO3,Ge,Cd,0,not balanced,not balanced,0.63,0.95,orthorhombic,-1.5190000000000001,0.182,-,12.235999999999999,0.642,5.348,5.3629999999999995,8.532,90.0,90.0,90.0,-,0.7037037037,0.6087267073,7.899,8.993,2.01,1.69,0.6108199003
639,PrLaO3,Pr,La,0,3,3,1.18,1.03,cubic,-2.68,0.965,0,18.627,0.501,4.533,4.533,4.533,90.0,90.0,90.0,2.547,0.762962963,0.7516723345999999,5.46,5.58,1.13,1.1,0.7507553479000001
362,HoCoO3,Ho,Co,1,3,3,1.12,0.61,orthorhombic,-2.54,0.023,0,10.662,1.399,5.157,5.558,7.44,90.0,90.0,90.0,2.32,0.4518518519,0.8910988518,6.018,7.86,1.23,1.88,0.8865219346
337,GeVO3,Ge,V,0,2,4,0.73,0.58,tetragonal,-1.954,0.21100000000000002,0.2,11.902000000000001,1.0490000000000002,3.75,3.75,4.232,90.0,90.0,90.0,2.827,0.4296296296,0.7620632668,7.899,6.74,2.01,1.63,0.7606754767
459,LuFeO3,Lu,Fe,1,3,3,1.03,0.65,orthorhombic,-2.8080000000000003,0.001,1,10.832,1.263,5.197,5.5329999999999995,7.534,90.0,90.0,90.0,2.726,0.4814814815,0.8414570695999999,5.4259,7.87,1.27,1.83,0.8381802333
880,Tm2O3,Tm,Tm,0,not balanced,not balanced,1.05,0.96,cubic,-2.9760000000000004,0.956,0,14.604000000000001,1.456,4.18,4.18,4.18,90.0,90.0,90.0,1.36,0.7111111111,0.734656396,6.184,6.184,1.25,1.25,0.7340727178
74,BUO3,B,U,0,1,5,0.27,0.76,cubic,-1.577,1.601,0.2,15.777999999999999,1.7409999999999999,4.289,4.289,4.289,90.0,90.0,90.0,4.164,0.5629629629999999,0.5428971495,8.298,6.05,2.04,1.38,0.5466982984000001
770,SnCsO3,Sn,Cs,0,not balanced,not balanced,0.81,1.67,orthorhombic,-1.3619999999999999,0.324,-,20.745,0.22,5.965,6.917999999999999,10.052999999999999,90.0,90.0,90.0,-1.696,1.2370370370000001,0.5057452475,7.343999999999999,3.8939999999999997,1.96,0.79,0.5090247513
876,TmScO3,Tm,Sc,0,3,3,1.05,0.75,cubic,-3.241,0.629,0,12.507,2.748,3.969,3.969,3.969,90.0,90.0,90.0,4.911,0.5555555556,0.8081220356000001,6.184,6.54,1.25,1.36,0.8057728437
953,ZnCaO3,Zn,Ca,0,not balanced,not balanced,0.9,1.0,orthorhombic,-1.804,0.159,-,12.398,1.966,5.807,5.954,7.171,90.0,90.0,90.0,-6.668,0.7407407407,0.6770171309,9.394,6.1129999999999995,1.65,1.0,0.6776439986
248,ErCoO3,Er,Co,0,3,3,1.06,0.61,orthorhombic,-2.551,0.024,0,10.600999999999999,1.392,5.144,5.5489999999999995,7.428,90.0,90.0,90.0,2.225,0.4518518519,0.8694527258,6.101,7.86,1.24,1.88,0.8654142695
254,ErFeO3,Er,Fe,1,3,3,1.06,0.65,orthorhombic,-2.795,-0.021,1,11.088,1.224,5.246,5.577999999999999,7.577999999999999,90.0,90.0,90.0,-,0.4814814815,0.8520636712999999,6.101,7.87,1.24,1.83,0.8485281374
40,AlCeO3,Al,Ce,0,3,3,0.54,1.01,orthorhombic,-3.19,0.289,0,13.607999999999999,2.937,5.557,5.574,8.786,90.0,90.0,90.0,-7.106,0.7481481481000001,0.566284668,5.986000000000001,5.54,1.61,1.12,0.5692062886
129,CdHfO3,Cd,Hf,0,2,4,1.31,0.71,rhombohedral,-2.773,0.025,0,12.535,2.653,5.665,5.665,5.665,58.9,58.9,58.9,2.526,0.5259259259000001,0.9130602126,8.993,6.65,1.69,1.3,0.9081797995
397,KNbO3,K,Nb,1,1,5,1.64,0.64,tetragonal,-2.697,-0.221,0,13.332,1.714,4.003,4.003,4.1610000000000005,90.0,90.0,90.0,5.482,0.47407407409999996,1.062436822,4.341,6.88,0.82,1.6,1.0537277524
249,ErCrO3,Er,Cr,1,3,3,1.06,0.62,orthorhombic,-3.217,-0.027999999999999997,0.6,10.953,2.4619999999999997,5.23,5.551,7.545,90.0,90.0,90.0,4.12,0.4592592593,0.8650392602,6.101,6.766,1.24,1.66,0.8611300405
210,CuNbO3,Cu,Nb,0,1,5,0.77,0.64,rhombohedral,-2.121,0.066,0,11.120999999999999,0.787,5.59,5.59,5.59,55.7,55.7,55.7,4.362,0.47407407409999996,0.7532996865,7.726,6.88,1.9,1.6,0.7521675073999999
372,HoLuO3,Ho,Lu,0,not balanced,not balanced,1.12,0.86,cubic,-3.1210000000000004,0.797,0,14.255,2.083,4.146,4.146,4.146,90.0,90.0,90.0,2.495,0.637037037,0.7902958143000001,6.018,5.4259,1.23,1.27,0.7884553489
679,RbNpO3,Rb,Np,0,element not in BV,element not in BV,1.72,0.86,orthorhombic,-2.8569999999999998,-0.15,0.4,16.464000000000002,1.899,6.148,6.15,8.71,90.0,90.0,90.0,1.678,0.637037037,0.982270506,4.177,6.19,0.82,1.36,0.976182813
576,NpGaO3,Np,Ga,0,element not in BV,element not in BV,0.98,0.62,orthorhombic,-2.862,0.065,0.8,11.752,2.042,5.468,5.5360000000000005,7.765,90.0,90.0,90.0,4.907,0.4592592593,0.836324264,6.19,5.999,1.36,1.81,0.8331258115000001
851,TlNpO3,Tl,Np,0,element not in BV,element not in BV,1.7,0.86,rhombohedral,-2.4659999999999997,0.105,0.4,16.26,1.113,6.14,6.14,6.14,59.7,59.7,59.7,1.24,0.637037037,0.9758713495999999,6.108,6.19,1.62,1.36,0.9699252307999999
635,PrGdO3,Pr,Gd,0,3,3,1.18,0.94,cubic,-3.016,0.6679999999999999,0,16.368,1.5330000000000001,4.342,4.342,4.342,90.0,90.0,90.0,4.197,0.6962962963,0.7812140420999999,5.46,6.15,1.13,1.2,0.7796305536
138,CdVO3,Cd,V,0,2,4,1.31,0.58,orthorhombic,-1.982,0.051,0.2,10.805,0.659,5.282,5.34,7.6610000000000005,90.0,90.0,90.0,2.427,0.4296296296,0.9745616776999999,8.993,6.74,1.69,1.63,0.9678077662000001
683,RbUO3,Rb,U,1,1,5,1.72,0.76,rhombohedral,-3.114,-0.053,0.2,16.684,2.986,6.178999999999999,6.178999999999999,6.178999999999999,60.0,60.0,60.0,4.513,0.5629629629999999,1.0288236105,4.177,6.05,0.82,1.38,1.0213764617
752,SmGaO3,Sm,Ga,0,3,3,1.24,0.62,orthorhombic,-2.9210000000000003,0.006,0,11.495999999999999,4.124,5.362,5.586,7.676,90.0,90.0,90.0,4.735,0.4592592593,0.9296480017000001,5.64,5.999,1.17,1.81,0.9241395556
206,CuDyO3,Cu,Dy,0,not balanced,not balanced,0.68,0.99,rhombohedral,-2.062,0.267,0.4,13.329,0.373,6.017,6.017,6.017,54.2,54.2,54.2,-3.666,0.7333333333,0.6134302417999999,7.726,5.94,1.9,1.22,0.615390002
763,Sm2O3,Sm,Sm,0,not balanced,not balanced,1.24,0.96,cubic,-2.766,0.935,0,16.964000000000002,1.391,4.394,4.394,4.394,90.0,90.0,90.0,0.92,0.7111111111,0.7928166941,5.64,5.64,1.17,1.17,0.7910008061
533,NbLiO3,Nb,Li,0,5,1,0.74,0.76,orthorhombic,-2.634,0.10300000000000001,0,9.588,2.594,4.772,5.138999999999999,7.819,90.0,90.0,90.0,-2.884,0.5629629629999999,0.7004043472,6.88,5.392,1.6,0.98,0.7005594962
406,LaAcO3,La,Ac,0,element not in BV,element not in BV,1.36,1.12,cubic,-2.568,1.078,-0.002,20.589000000000002,0.273,4.687,4.687,4.687,90.0,90.0,90.0,2.449,0.8296296296,0.775813513,5.58,5.17,1.1,1.1,0.7744502842000001
890,UKO3,U,K,0,not balanced,not balanced,1.17,1.38,orthorhombic,-2.87,0.27,0.2,17.52,2.296,5.403,5.74,11.299000000000001,90.0,90.0,90.0,-3.13,1.0222222222,0.6527139518999999,6.05,4.341,1.38,0.82,0.6536922402
965,ZrKO3,Zr,K,0,not balanced,not balanced,0.89,1.38,orthorhombic,-2.492,0.267,0.2,16.137,1.041,6.462999999999999,6.888999999999999,7.249,90.0,90.0,90.0,-11.897,1.0222222222,0.5801901794,6.84,4.341,1.33,0.82,0.5824728521
164,CeYO3,Ce,Y,0,3,3,1.34,0.9,cubic,-3.136,0.528,0,15.905,1.935,4.3,4.3,4.3,90.0,90.0,90.0,4.567,0.6666666667,0.8453854406,5.54,6.38,1.12,1.22,0.8423793828
954,ZnCeO3,Zn,Ce,0,2,4,0.9,0.87,orthorhombic,-2.228,0.192,0.2,14.337,0.626,5.515,5.978,8.697000000000001,90.0,90.0,90.0,-4.988,0.6444444443999999,0.7166622782,9.394,5.54,1.65,1.12,0.7164518047
263,ErSmO3,Er,Sm,0,3,3,1.06,0.96,cubic,-2.573,1.226,0,16.759,0.5329999999999999,4.376,4.376,4.376,90.0,90.0,90.0,-1.555,0.7111111111,0.7377174644,6.101,5.64,1.24,1.17,0.7370689329000001
936,YGaO3,Y,Ga,1,3,3,1.08,0.62,orthorhombic,-2.946,0.024,0,11.113,4.138999999999999,5.277,5.565,7.569,90.0,90.0,90.0,4.486,0.4592592593,0.8722180093,6.38,5.999,1.22,1.81,0.8681310977
183,CrBaO3,Cr,Ba,0,not balanced,not balanced,0.57,1.35,orthorhombic,-2.445,0.14,0.4,15.958,1.275,5.018,5.888999999999999,10.800999999999998,90.0,90.0,90.0,-,1.0,0.5028314888000001,6.766,5.212000000000001,1.66,0.89,0.5065455851
950,YVO3,Y,V,1,3,3,1.08,0.64,orthorhombic,-3.25,-0.031,0.4,11.520999999999999,1.489,5.313,5.702999999999999,7.605,90.0,90.0,90.0,3.984,0.47407407409999996,0.8634519990999999,6.38,6.74,1.22,1.63,0.8596200085
781,SrGeO3,Sr,Ge,0,2,4,1.44,0.53,cubic,-2.434,0.14300000000000002,-,11.292,0.308,3.8360000000000003,3.8360000000000003,3.8360000000000003,90.0,90.0,90.0,4.097,0.39259259259999996,1.0493765529,5.695,7.899,0.95,2.01,1.0405094604
343,HfHgO3,Hf,Hg,0,4,2,0.83,1.02,orthorhombic,-2.228,0.257,0,13.616,1.5930000000000002,5.257999999999999,5.545,9.34,90.0,90.0,90.0,-5.258,0.7555555556,0.6504188958,6.65,10.437000000000001,1.3,2.0,0.6515901331
689,RhCeO3,Rh,Ce,0,3,3,0.67,1.01,orthorhombic,-1.895,0.39299999999999996,0,14.210999999999999,0.48,5.604,5.941,8.537,90.0,90.0,90.0,-6.947,0.7481481481000001,0.6052354653,7.46,5.54,2.28,1.12,0.607348978
946,YScO3,Y,Sc,1,3,3,1.08,0.75,orthorhombic,-3.781,0.027000000000000003,0,12.270999999999999,4.6610000000000005,5.43,5.721,7.901,90.0,90.0,90.0,5.013,0.5555555556,0.8182235610999999,6.38,6.54,1.22,1.36,0.8156394498999999
913,VNpO3,V,Np,0,element not in BV,element not in BV,0.72,0.86,orthorhombic,-2.917,0.247,1.2,13.46,1.331,5.547999999999999,5.831,8.321,90.0,90.0,90.0,-,0.637037037,0.6623126865,6.74,6.19,1.63,1.36,0.6633037062
17,AcNdO3,Ac,Nd,0,element not in BV,element not in BV,1.12,0.98,cubic,-3.029,0.5710000000000001,0,18.259,1.828,4.503,4.503,4.503,90.0,90.0,90.0,4.679,0.7259259259,0.7495938839,5.17,5.53,1.1,1.14,0.7487012976999999
235,DyLuO3,Dy,Lu,0,not balanced,not balanced,1.08,0.86,cubic,-3.148,0.758,0,14.264000000000001,2.1630000000000003,4.147,4.147,4.147,90.0,90.0,90.0,4.616,0.637037037,0.7774975015000001,5.94,5.4259,1.22,1.27,0.7759401847