,index,Chemical formula,A,B,In literature,Valence A,Valence B,Radius A [ang],Radius B [ang],Lowest distortion,Formation energy [eV/atom],Stability [eV/atom],Magnetic moment [mu_B],Volume per atom [A^3/atom],Band gap [eV],a [ang],b [ang],c [ang],alpha [deg],beta [deg],gamma [deg],Vacancy energy [eV/O atom],Octahedral Factor,Tolerance Factor,A Ionization Energy,B Ionization Energy,A Electronegativity,B Electronegativity,Goldschmidt Tolerance Factor
603,2162,LaPrO3,La,Pr,0,3,3,1.36,0.99,cubic,-2.792,0.852,0,18.427,0.859,4.517,4.517,4.517,90,90,90,3.411,0.7333333333,0.8189142637000001,5.58,5.46,1.1,1.13,0.8189142637000001
604,4269,TaNaO3,Ta,Na,0,not balanced,not balanced,0.74,1.02,orthorhombic,-2.633,0.298,0,12.859,2.958,5.468,5.632,8.351,90,90,90,-11.349,0.7555555556,0.6235667395000001,7.89,5.138999999999999,1.5,0.93,0.6235667395000001
605,4338,TbLuO3,Tb,Lu,0,not balanced,not balanced,1.1,0.86,cubic,-3.044,0.717,0,14.289,2.003,4.149,4.149,4.149,90,90,90,4.647,0.637037037,0.7838966579000001,5.86,5.4259,1.4698021411895752,1.27,0.7838966579000001
606,2738,Nd2O3,Nd,Nd,0,3,3,1.27,0.98,cubic,-2.692,0.928,0,17.831,0.935,4.467,4.467,4.467,90,90,90,3.107,0.7259259259,0.7951157797,5.53,5.53,1.14,1.14,0.7951157797
607,154,AlBiO3,Al,Bi,0,not balanced,not balanced,0.54,0.9,orthorhombic,-2.132,0.257,,13.078,1.156,5.494,5.499,8.657,90,90,90,-4.525,0.6666666667,0.5939696962,5.986000000000001,7.289,1.61,2.02,0.5939696962
608,4459,TeBaO3,Te,Ba,0,not balanced,not balanced,0.77,1.35,orthorhombic,-2.151,0.034,,19.713,3.553,6.303,6.869,9.105,90,90,90,-11.292,1.0,0.5552097689,9.009,5.212000000000001,2.1,0.89,0.5552097689
609,5151,YbPaO3,Yb,Pa,0,element not in BV,element not in BV,1.04,0.91,orthorhombic,-3.308,-0.045,0.2,15.125,2.527,5.85,6.086,8.497,90,90,90,5.2,0.6740740741,0.7477810651000001,6.254,5.89,1.4698021411895752,1.5,0.7477810651000001
610,4693,TlGdO3,Tl,Gd,0,not balanced,not balanced,1.7,0.94,orthorhombic,-2.261,0.104,0.001,14.658,0.896,5.826,5.908,8.517,90,90,90,-3.09,0.6962962963,0.9417797740999999,6.108,6.15,1.62,1.2,0.9417797740999999
611,932,CoSnO3,Co,Sn,0,2,4,0.9,0.69,cubic,-0.997,0.673,0.6,12.812,0.36,4.001,4.001,4.001,90,90,90,,0.5111111111,0.7798971851000001,7.86,7.343999999999999,1.88,1.96,0.7798971851000001
612,4610,TiCeO3,Ti,Ce,0,2,4,0.86,0.87,rhombohedral,-3.075,0.288,0.2,15.697,0.625,6.121,6.121,6.121,58.6,58.6,58.6,-7.58,0.6444444443999999,0.7039216155,6.82,5.54,1.54,1.12,0.7039216155
613,3951,SiCaO3,Si,Ca,0,not balanced,not balanced,0.4,1.0,orthorhombic,-3.108,0.184,,12.268,4.126,4.921,5.143,9.694,90,90,90,-9.925,0.7407407407,0.5265688796,8.151,6.1129999999999995,1.9,1,0.5265688796
614,1774,HgGeO3,Hg,Ge,0,2,4,1.14,0.53,rhombohedral,-1.168,0.163,,10.906,0.264,5.376,5.376,5.376,59.7,59.7,59.7,1.602,0.39259259259999996,0.9365403644,10.437000000000001,7.899,2,2.01,0.9365403644
615,2227,LiNdO3,Li,Nd,0,not balanced,not balanced,0.92,0.98,orthorhombic,-2.335,0.187,0,12.423,2.55,5.762,5.941,7.258,90,90,90,-2.224,0.7259259259,0.6888980229,5.392,5.53,0.98,1.14,0.6888980229
616,2165,LaRbO3,La,Rb,0,not balanced,not balanced,1.36,1.52,orthorhombic,-2.186,0.239,0,19.456,1.452,6.524,6.582,9.063,90,90,90,-2.592,1.1259259259,0.6676861941,5.58,4.177,1.1,0.82,0.6676861941
617,3914,ScPrO3,Sc,Pr,0,not balanced,not balanced,0.87,0.92,orthorhombic,-3.479,0.242,0,14.625,3.617,5.806,5.921,8.508,90,90,90,-5.149,0.6814814815000001,0.691531742,6.54,5.46,1.36,1.13,0.691531742
618,4094,SnBaO3,Sn,Ba,0,not balanced,not balanced,0.81,1.35,orthorhombic,-2.182,0.26,,18.505,1.594,5.752,5.877,10.949,90,90,90,-6.743,1.0,0.5656854249000001,7.343999999999999,5.212000000000001,1.96,0.89,0.5656854249000001
619,2242,LiSbO3,Li,Sb,0,1,5,0.92,0.6,rhombohedral,-1.906,0.049,,10.472,2.403,5.371,5.371,5.371,58.1,58.1,58.1,2.451,0.44444444439999997,0.8231448171,5.392,8.641,0.98,2.05,0.8231448171
620,3437,PuBaO3,Pu,Ba,0,element not in BV,element not in BV,0.96,1.35,orthorhombic,-2.951,0.35,0.8,18.127,1.556,6.681,6.709,8.087,90,90,90,,1.0,0.604969135,6.06,5.212000000000001,1.28,0.89,0.604969135
621,2760,NdTbO3,Nd,Tb,0,2,4,1.35,0.76,cubic,-2.905,0.685,0,16.004,1.693,4.309,4.309,4.309,90,90,90,4.27,0.5629629629999999,0.9048285826000001,5.53,5.86,1.14,1.4031774997711182,0.9048285826000001
622,1663,GeSrO3,Ge,Sr,0,not balanced,not balanced,0.63,1.18,orthorhombic,-2.429,0.148,,14.471,2.864,5.208,5.272,10.54,90,90,90,-7.686,0.8740740740999999,0.5533879157,7.899,5.695,2.01,0.95,0.5533879157
623,2148,LaLuO3,La,Lu,1,3,3,1.36,0.86,rhombohedral,-3.782,0.055,0,14.353,4.557,5.841,5.841,5.841,60.8,60.8,60.8,5.238,0.637037037,0.867085691,5.58,5.4259,1.1,1.27,0.867085691
624,5057,YGaO3,Y,Ga,1,3,3,1.08,0.62,orthorhombic,-2.946,0.024,0,11.113,4.139,5.277,5.565,7.569,90,90,90,4.486,0.4592592593,0.8722180093,6.38,5.999,1.22,1.81,0.8722180093
625,4765,TmGaO3,Tm,Ga,0,3,3,1.05,0.62,orthorhombic,-2.997,0.019,0,10.799,4.07,5.206,5.526,7.508,90,90,90,4.273,0.4592592593,0.8614498856999999,6.184,5.999,1.25,1.81,0.8614498856999999
626,4046,SmLuO3,Sm,Lu,0,not balanced,not balanced,1.24,0.86,cubic,-3.26,0.572,0,14.456,1.986,4.166,4.166,4.166,90,90,90,4.842,0.637037037,0.8286907526,5.64,5.4259,1.17,1.27,0.8286907526
627,2721,NdGaO3,Nd,Ga,1,3,3,1.27,0.62,orthorhombic,-2.891,0.001,0,11.664,3.895,5.426,5.556,7.738,90,90,90,4.861,0.4592592593,0.9404161252,5.53,5.999,1.14,1.81,0.9404161252
628,3386,PtKO3,Pt,K,0,element not in BV,element not in BV,0.67,1.38,orthorhombic,-0.817,0.257,0.2,18.886,0.276,6.311,6.337,9.445,90,90,90,-10.896,1.0222222222,0.5232072154,9.0,4.341,2.28,0.82,0.5232072154
629,2444,MnNaO3,Mn,Na,0,not balanced,not balanced,0.96,1.02,orthorhombic,-1.473,0.259,0.4,12.273,0.729,5.121,5.153,9.301,90,90,90,-3.164,0.7555555556,0.6892053437000001,7.435,5.138999999999999,1.55,0.93,0.6892053437000001
630,856,CeScO3,Ce,Sc,0,3,3,1.34,0.75,orthorhombic,-3.701,-0.038,0,13.251,4.42,5.638,5.828,8.066,90,90,90,5.523,0.5555555556,0.9057701148999999,5.54,6.54,1.12,1.36,0.9057701148999999
631,16,AcDyO3,Ac,Dy,0,element not in BV,element not in BV,1.12,0.99,orthorhombic,-3.712,0.002,0,15.895,4.542,5.989,6.176,8.595,90,90,90,5.48,0.7333333333,0.7463904912999999,5.17,5.94,1.1,1.22,0.7463904912999999
632,1213,DyPrO3,Dy,Pr,0,2,4,1.19,0.85,cubic,-2.403,1.31,0,18.062,0.321,4.487,4.487,4.487,90,90,90,-2.614,0.6296296296,0.8163869201,5.94,5.46,1.22,1.13,0.8163869201
633,211,AlTmO3,Al,Tm,0,3,3,0.54,0.88,rhombohedral,-3.378,0.237,0,12.404,3.756,5.828,5.828,5.828,55.1,55.1,55.1,-6.024,0.6518518519,0.5992967787,5.986000000000001,6.184,1.61,1.25,0.5992967787
634,1260,ErFeO3,Er,Fe,1,3,3,1.06,0.65,orthorhombic,-2.795,-0.021,1,11.088,1.224,5.246,5.578,7.578,90,90,90,,0.4814814815,0.8520636712999999,6.101,7.87,1.24,1.83,0.8520636712999999
635,1495,GaNaO3,Ga,Na,0,not balanced,not balanced,0.62,1.02,orthorhombic,-1.39,0.326,,12.016,1.633,5.574,6.025,7.156,90,90,90,-10.839,0.7555555556,0.5877638645000001,5.999,5.138999999999999,1.81,0.93,0.5877638645000001
636,45,AcPrO3,Ac,Pr,0,element not in BV,element not in BV,1.12,0.92,cubic,-2.953,0.625,0,18.704,1.649,4.539,4.539,4.539,90,90,90,4.449,0.6814814815000001,0.7694069381,5.17,5.46,1.1,1.13,0.7694069381
637,911,CoNaO3,Co,Na,0,not balanced,not balanced,0.9,1.02,rhombohedral,-1.013,0.289,0.4,12.852,1.249,5.75,5.75,5.75,58.1,58.1,58.1,-10.09,0.7555555556,0.6713039062,7.86,5.138999999999999,1.88,0.93,0.6713039062
638,1194,DyInO3,Dy,In,0,not balanced,not balanced,1.08,0.8,cubic,-2.146,0.701,0,13.544,1.635,4.076,4.076,4.076,90,90,90,2.656,0.5925925926,0.7991951062,5.94,5.7860000000000005,1.22,1.78,0.7991951062
639,3338,PrScO3,Pr,Sc,1,3,3,1.18,0.75,orthorhombic,-3.721,-0.029,0,13.073,4.487,5.596,5.811,8.04,90,90,90,5.422,0.5555555556,0.8518953126000001,5.46,6.54,1.13,1.36,0.8518953126000001
640,4223,SrThO3,Sr,Th,0,2,4,1.44,0.94,orthorhombic,-3.649,0.071,0,17.178,4.252,6.145,6.331,8.831,90,90,90,5.721,0.6962962963,0.8614969081,5.695,6.08,0.95,1.3,0.8614969081
641,814,Ce2O3,Ce,Ce,0,3,3,1.34,1.01,cubic,-2.604,0.916,0,18.959,0.816,4.56,4.56,4.56,90,90,90,2.825,0.7481481481000001,0.8059818819,5.54,5.54,1.12,1.12,0.8059818819
642,819,CeDyO3,Ce,Dy,0,3,3,1.34,0.91,orthorhombic,-3.65,0.035,0,15.149,5.054,5.856,6.095,8.488,90,90,90,4.606,0.6740740741,0.8416447971,5.54,5.94,1.12,1.22,0.8416447971
643,3415,PtSrO3,Pt,Sr,0,element not in BV,element not in BV,0.67,1.18,rhombohedral,-1.45,0.258,0,16.181,0.793,6.063,6.063,6.063,61.2,61.2,61.2,-11.566,0.8740740740999999,0.5645674696,9.0,5.695,2.28,0.95,0.5645674696
644,2359,MgHfO3,Mg,Hf,0,2,4,0.89,0.71,cubic,-2.878,0.604,0,13.227,1.009,4.044,4.044,4.044,90,90,90,3.554,0.5259259259000001,0.7688928106,7.646,6.65,1.31,1.3,0.7688928106
645,3457,PuInO3,Pu,In,0,element not in BV,element not in BV,0.96,0.8,cubic,-2.13,0.609,1,13.925,0.593,4.114,4.114,4.114,90,90,90,,0.5925925926,0.7597286812,6.06,5.7860000000000005,1.28,1.78,0.7597286812
646,4860,UPbO3,U,Pb,0,not balanced,not balanced,1.17,0.99,orthorhombic,-2.554,0.266,0.4,17.378,0.881,5.706,5.963,10.215,90,90,90,,0.7333333333,0.7614996104999999,6.05,7.416,1.38,2.33,0.7614996104999999
647,1894,HoYO3,Ho,Y,0,not balanced,not balanced,1.12,0.9,cubic,-2.851,0.99,0,15.423,1.438,4.256,4.256,4.256,90,90,90,0.644,0.6666666667,0.7762461109000001,6.018,6.38,1.23,1.22,0.7762461109000001
648,4708,TlNbO3,Tl,Nb,0,1,5,1.7,0.64,tetragonal,-2.223,0.065,0,13.712,0.448,4.032,4.032,4.218,90,90,90,4.564,0.47407407409999996,1.0837566243999999,6.108,6.88,1.62,1.6,1.0837566243999999
649,1336,EuGeO3,Eu,Ge,0,2,4,1.48,0.53,rhombohedral,-2.704,-0.212,0,10.559,1.791,5.284,5.284,5.284,60.5,60.5,60.5,4.364,0.39259259259999996,1.0644213781,5.67,7.899,1.4698021411895752,2.01,1.0644213781
650,4900,VCaO3,V,Ca,0,not balanced,not balanced,0.72,1.0,orthorhombic,-2.726,0.175,0.2,13.001,1.207,5.508,5.518,8.554,90,90,90,,0.7407407407,0.6228557604,6.74,6.1129999999999995,1.63,1,0.6228557604
651,3287,PrAlO3,Pr,Al,1,3,3,1.18,0.54,rhombohedral,-3.5,-0.079,0,10.784,4.271,5.323,5.323,5.323,60.5,60.5,60.5,6.474,0.4,0.9465503473000001,5.46,5.986000000000001,1.13,1.61,0.9465503473000001
652,2706,NdBO3,Nd,B,0,not balanced,not balanced,1.27,0.27,cubic,-2.431,0.867,0,8.909,2.497,3.545,3.545,3.545,90,90,90,5.021,0.2,1.1435924486,5.53,8.298,1.14,2.04,1.1435924486
653,736,CdBaO3,Cd,Ba,0,not balanced,not balanced,1.31,1.35,orthorhombic,-1.535,0.23,,17.186,0.843,6.481,6.492,8.169,90,90,90,-6.3,1.0,0.6966311251999999,8.993,5.212000000000001,1.69,0.89,0.6966311251999999
654,3349,PrTlO3,Pr,Tl,0,3,3,1.18,0.89,orthorhombic,-2.214,0.043,0,14.972,1.132,5.774,6.149,8.433,90,90,90,1.197,0.6592592593,0.7986518555,5.46,6.108,1.13,1.62,0.7986518555
655,1294,ErScO3,Er,Sc,0,3,3,1.06,0.75,cubic,-3.269,0.583,0,12.575,2.751,3.976,3.976,3.976,90,90,90,4.961,0.5555555556,0.8114892108,6.101,6.54,1.24,1.36,0.8114892108
656,2853,NpBaO3,Np,Ba,0,element not in BV,element not in BV,0.98,1.35,orthorhombic,-3.067,0.322,0.6,18.349,2.404,6.602,6.691,8.308,90,90,90,,1.0,0.610206963,6.19,5.212000000000001,1.36,0.89,0.610206963
657,4372,TbTmO3,Tb,Tm,0,4,2,0.88,1.03,cubic,-2.963,0.783,0,14.73,1.89,4.192,4.192,4.192,90,90,90,2.365,0.762962963,0.6625412278,5.86,6.184,1.4698021411895752,1.25,0.6625412278
658,2019,IrRbO3,Ir,Rb,0,not balanced,not balanced,0.63,1.52,rhombohedral,-1.136,0.154,0.4,19.477,0.881,6.345,6.345,6.345,63.5,63.5,63.5,-20.814,1.1259259259,0.4878297654,9.1,4.177,2.2,0.82,0.4878297654
659,603,BiFeO3,Bi,Fe,1,3,3,1.38,0.65,orthorhombic,-1.552,0.017,1,12.067,1.283,5.447,5.675,7.808,90,90,90,2.587,0.4814814815,0.9652007562999999,7.289,7.87,2.02,1.83,0.9652007562999999
660,5171,YbTeO3,Yb,Te,0,2,4,1.14,0.97,orthorhombic,-2.163,0.145,,13.44,0.212,5.596,5.928,8.103,90,90,90,2.574,0.7185185184999999,0.7589206401999999,6.254,9.009,1.4698021411895752,2.1,0.7589206401999999
661,3880,ScCeO3,Sc,Ce,0,not balanced,not balanced,0.87,0.94,orthorhombic,-3.448,0.254,0,14.934,3.552,5.85,5.951,8.579,90,90,90,-5.624,0.6962962963,0.6854921634000001,6.54,5.54,1.36,1.12,0.6854921634000001
662,2288,LuHoO3,Lu,Ho,0,3,3,1.03,0.9,cubic,-2.808,1.11,0,15.148,0.884,4.231,4.231,4.231,90,90,90,-0.008,0.6666666667,0.7479618397,5.4259,6.018,1.27,1.23,0.7479618397
663,4151,SnTiO3,Sn,Ti,0,2,4,0.81,0.61,tetragonal,-2.488,0.078,0,12.534,0.744,3.867,3.867,4.192,90,90,90,4.657,0.4518518519,0.7792605344,7.343999999999999,6.82,1.96,1.54,0.7792605344
664,4052,SmNdO3,Sm,Nd,0,not balanced,not balanced,1.24,0.98,cubic,-2.622,1.038,0,17.747,0.993,4.46,4.46,4.46,90,90,90,,0.7259259259,0.7860114005,5.64,5.53,1.17,1.14,0.7860114005
665,4982,WEuO3,W,Eu,0,3,3,0.66,0.95,rhombohedral,-2.538,0.375,0,15.144,0.928,5.838,5.838,5.838,63.5,63.5,63.5,-15.419,0.7037037037,0.6179498392,7.98,5.67,2.36,1.4031774997711182,0.6179498392
666,4374,TbVO3,Tb,V,1,2,4,1.1,0.58,orthorhombic,-3.132,-0.037,0.4,11.514,1.093,5.318,5.67,7.638,90,90,90,4.039,0.4296296296,0.8976225979000001,5.86,6.74,1.4698021411895752,1.63,0.8976225979000001
667,4031,SmDyO3,Sm,Dy,0,not balanced,not balanced,1.24,0.99,cubic,-3.027,0.749,0,15.621,1.796,4.275,4.275,4.275,90,90,90,4.233,0.7333333333,0.7826523775,5.64,5.94,1.17,1.22,0.7826523775
668,1799,HgPuO3,Hg,Pu,0,element not in BV,element not in BV,1.14,0.83,rhombohedral,-2.166,-0.028,0.8,15.168,1.442,6.063,6.063,6.063,58.4,58.4,58.4,-0.013,0.6148148148,0.8076586629000001,10.437000000000001,6.06,2,1.28,0.8076586629000001
669,4697,TlHoO3,Tl,Ho,0,not balanced,not balanced,1.7,0.9,orthorhombic,-2.311,0.095,0,14.136,0.876,5.75,5.848,8.408,90,90,90,-3.018,0.6666666667,0.9585225256000001,6.108,6.018,1.62,1.23,0.9585225256000001
670,2876,NpLaO3,Np,La,0,element not in BV,element not in BV,0.98,1.03,cubic,-2.684,0.912,0.8,18.675,0.391,4.537,4.537,4.537,90,90,90,,0.762962963,0.6922515967,6.19,5.58,1.36,1.1,0.6922515967
671,3977,SiNaO3,Si,Na,0,not balanced,not balanced,0.4,1.02,orthorhombic,-2.283,0.226,,11.325,0.583,4.918,5.456,8.442,90,90,90,-14.205,0.7555555556,0.5221252604,8.151,5.138999999999999,1.9,0.93,0.5221252604
672,4068,SmScO3,Sm,Sc,1,not balanced,not balanced,1.24,0.75,orthorhombic,-3.76,-0.006,0,12.664,4.491,5.511,5.778,7.954,90,90,90,5.249,0.5555555556,0.8720983634999999,5.64,6.54,1.17,1.36,0.8720983634999999
673,2466,MnSrO3,Mn,Sr,0,not balanced,not balanced,0.96,1.18,orthorhombic,-2.149,0.26,0.6,14.854,0.604,5.631,5.697,9.261,90,90,90,-5.9,0.8740740740999999,0.645619235,7.435,5.695,1.55,0.95,0.645619235
674,4713,TlPaO3,Tl,Pa,0,element not in BV,element not in BV,1.7,0.91,cubic,-2.563,-0.358,0,17.211,3.399,4.415,4.415,4.415,90,90,90,5.8,0.6740740741,0.9542812755,6.108,5.89,1.62,1.5,0.9542812755
675,3050,PaSrO3,Pa,Sr,0,element not in BV,element not in BV,0.95,1.18,tetragonal,-2.718,0.463,0.2,17.429,0.678,3.796,3.796,6.049,90,90,90,-8.015,0.8740740740999999,0.6428243465,5.89,5.695,1.5,0.95,0.6428243465
676,3933,ScTlO3,Sc,Tl,0,not balanced,not balanced,0.87,1.2,orthorhombic,-2.175,0.197,0,13.138,1.462,5.517,5.734,8.307,90,90,90,-3.495,0.8888888889,0.6155988447999999,6.54,6.108,1.36,1.62,0.6155988447999999
677,2347,MgCeO3,Mg,Ce,0,2,4,0.89,0.87,orthorhombic,-2.711,0.236,0.2,14.417,0.613,5.674,5.946,8.548,90,90,90,-3.54,0.6444444443999999,0.7134771125,7.646,5.54,1.31,1.12,0.7134771125
678,1850,Ho2O3,Ho,Ho,0,not balanced,not balanced,1.12,0.9,cubic,-2.927,0.947,0,15.17,1.533,4.233,4.233,4.233,90,90,90,1.256,0.6666666667,0.7762461109000001,6.018,6.018,1.23,1.23,0.7762461109000001
679,5212,ZnLaO3,Zn,La,0,not balanced,not balanced,0.9,1.03,orthorhombic,-2.333,0.183,0.2,14.238,0.656,5.439,5.977,8.759,90,90,90,-4.393,0.762962963,0.6684833015,9.394,5.58,1.65,1.1,0.6684833015
680,637,BiScO3,Bi,Sc,1,3,3,1.38,0.75,orthorhombic,-2.608,0.033,0,13.075,3.008,5.56,5.855,8.033,90,90,90,1.957,0.5555555556,0.9192388155,7.289,6.54,2.02,1.36,0.9192388155
681,4656,TiSrO3,Ti,Sr,0,not balanced,not balanced,0.74,1.18,orthorhombic,-3.182,0.171,0.001,15.27,2.843,5.607,5.726,9.512,90,90,90,-11.834,0.8740740740999999,0.5841316888,6.82,5.695,1.54,0.95,0.5841316888
682,3998,SiSnO3,Si,Sn,0,2,4,0.4,0.69,cubic,-1.023,1.436,,12.901,1.755,4.01,4.01,4.01,90,90,90,2.712,0.5111111111,0.6065866995,8.151,7.343999999999999,1.9,1.96,0.6065866995
683,2167,LaRhO3,La,Rh,1,3,3,1.36,0.67,orthorhombic,-2.386,-0.062,0,12.605,0.674,5.503,5.806,7.89,90,90,90,1.14,0.49629629630000005,0.9486432559,5.58,7.46,1.1,2.28,0.9486432559
684,1544,GdCeO3,Gd,Ce,0,3,3,1.11,1.01,cubic,-2.371,1.285,0,18.68,0.432,4.537,4.537,4.537,90,90,90,-2.684,0.7481481481000001,0.7370689329000001,6.15,5.54,1.2,1.12,0.7370689329000001
685,3886,ScErO3,Sc,Er,0,not balanced,not balanced,0.87,0.89,cubic,-2.549,1.303,0,14.845,0.69,4.203,4.203,4.203,90,90,90,-1.591,0.6592592593,0.7007933278,6.54,6.101,1.36,1.24,0.7007933278
686,4842,UHgO3,U,Hg,0,4,2,1.17,1.02,orthorhombic,-2.226,0.291,0.4,15.403,1.773,5.681,6.135,8.838,90,90,90,-2.345,0.7555555556,0.7518603748999999,6.05,10.437000000000001,1.38,2,0.7518603748999999
687,2479,MnYbO3,Mn,Yb,0,not balanced,not balanced,0.96,0.95,rhombohedral,-2.293,0.317,0.6,13.057,1.473,5.875,5.875,5.875,56.1,56.1,56.1,-4.328,0.7037037037,0.7101811585,7.435,6.254,1.55,1.4031774997711182,0.7101811585
688,2336,MgAcO3,Mg,Ac,0,element not in BV,element not in BV,0.89,1.12,orthorhombic,-2.778,0.199,0.2,15.257,0.592,5.598,6.166,8.84,90,90,90,,0.8296296296,0.6412628299,7.646,5.17,1.31,1.1,0.6412628299
689,3128,PbThO3,Pb,Th,0,2,4,1.49,0.94,orthorhombic,-2.898,0.173,0,17.337,2.938,6.109,6.404,8.863,90,90,90,3.431,0.6962962963,0.8769359207999999,7.416,6.08,2.33,1.3,0.8769359207999999
690,4264,TaLiO3,Ta,Li,0,not balanced,not balanced,0.74,0.76,orthorhombic,-2.828,0.138,0,9.486,2.991,4.748,5.105,7.828,90,90,90,-2.44,0.5629629629999999,0.7004043472,7.89,5.392,1.5,0.98,0.7004043472
691,4761,TmDyO3,Tm,Dy,0,not balanced,not balanced,1.05,0.99,cubic,-2.811,1.08,0,15.37,1.006,4.252,4.252,4.252,90,90,90,0.065,0.7333333333,0.7252377243000001,6.184,5.94,1.25,1.22,0.7252377243000001
692,5106,Y2O3,Y,Y,0,3,3,1.08,0.9,cubic,-2.888,0.92,0,15.51,1.751,4.264,4.264,4.264,90,90,90,1.075,0.6666666667,0.7636753237,6.38,6.38,1.22,1.22,0.7636753237
693,4312,TbBO3,Tb,B,0,4,2,0.88,0.27,cubic,-2.39,0.759,0,8.318,2.961,3.465,3.465,3.465,90,90,90,5.397,0.2,0.9733630382999999,5.86,8.298,1.4698021411895752,2.04,0.9733630382999999
694,3479,PuRbO3,Pu,Rb,0,element not in BV,element not in BV,0.96,1.52,orthorhombic,-2.315,0.314,0.6,18.852,0.598,5.585,5.712,11.818,90,90,90,,1.1259259259,0.5691347263000001,6.06,4.177,1.28,0.82,0.5691347263000001
695,4183,SrGeO3,Sr,Ge,0,2,4,1.44,0.53,cubic,-2.434,0.143,,11.292,0.308,3.836,3.836,3.836,90,90,90,4.097,0.39259259259999996,1.0493765529,5.695,7.899,0.95,2.01,1.0493765529
696,1846,HoGdO3,Ho,Gd,0,not balanced,not balanced,1.12,0.94,cubic,-2.759,1.074,0,16.034,1.071,4.312,4.312,4.312,90,90,90,0.771,0.6962962963,0.7626872269,6.018,6.15,1.23,1.2,0.7626872269
697,4848,ULiO3,U,Li,0,5,1,0.84,0.76,orthorhombic,-3.047,0.099,0.2,10.735,2.256,5.167,5.647,7.359,90,90,90,-2.292,0.5629629629999999,0.733916517,6.05,5.392,1.38,0.98,0.733916517
698,2390,MgSiO3,Mg,Si,0,2,4,0.89,0.4,orthorhombic,-2.869,0.208,,8.157,5.946,4.783,4.936,6.91,90,90,90,5.267,0.2962962963,0.9050966799,7.646,8.151,1.31,1.9,0.9050966799
699,520,BeCaO3,Be,Ca,0,not balanced,not balanced,0.45,1.0,orthorhombic,-2.398,0.093,,10.423,2.65,5.074,5.731,7.168,90,90,90,-9.03,0.7407407407,0.5416137047,9.322000000000001,6.1129999999999995,1.57,1,0.5416137047
700,4184,SrHfO3,Sr,Hf,1,2,4,1.44,0.71,orthorhombic,-3.653,0,0,13.589,4.43,5.751,5.792,8.159,90,90,90,6.856,0.5259259259000001,0.9576834560999999,5.695,6.65,0.95,1.3,0.9576834560999999
701,8,AcBiO3,Ac,Bi,0,element not in BV,element not in BV,1.12,0.9,orthorhombic,-2.5,0.027,0,17.182,1.639,6.09,6.415,8.796,90,90,90,2.653,0.6666666667,0.7762461109000001,5.17,7.289,1.1,2.02,0.7762461109000001
702,4044,SmLaO3,Sm,La,0,not balanced,not balanced,1.24,1.03,cubic,-2.566,1.141,0,18.469,0.557,4.52,4.52,4.52,90,90,90,2.17,0.762962963,0.769498556,5.64,5.58,1.17,1.1,0.769498556
703,2430,MnGdO3,Mn,Gd,0,not balanced,not balanced,0.96,0.94,orthorhombic,-2.667,0.279,0.8,12.844,0.346,5.661,5.68,7.989,90,90,90,-2.85,0.6962962963,0.7132823863,7.435,6.15,1.55,1.2,0.7132823863