,index,Chemical formula,A,B,In literature,Valence A,Valence B,Radius A [ang],Radius B [ang],Lowest distortion,Formation energy [eV/atom],Stability [eV/atom],Magnetic moment [mu_B],Volume per atom [A^3/atom],Band gap [eV],a [ang],b [ang],c [ang],alpha [deg],beta [deg],gamma [deg],Vacancy energy [eV/O atom],Octahedral Factor,Tolerance Factor,A Ionization Energy,B Ionization Energy,A Electronegativity,B Electronegativity,Goldschmidt Tolerance Factor
501,215,AlYO3,Al,Y,0,3,3,0.54,0.9,rhombohedral,-3.324,0.236,0,13.18,3.81,6.003,6.003,6.003,54.1,54.1,54.1,-6.49,0.6666666667,0.5939696962,5.986000000000001,6.38,1.61,1.22,0.5939696962
502,1154,CuTbO3,Cu,Tb,0,not balanced,not balanced,0.68,0.84,rhombohedral,-1.918,0.224,0.399,13.473,0.366,6.037,6.037,6.037,54.3,54.3,54.3,-3.729,0.6222222222,0.6554460118,7.726,5.86,1.9,1.4031774997711182,0.6554460118
503,3271,PmTbO3,Pm,Tb,0,element not in BV,element not in BV,1.14,0.84,cubic,-2.871,0.747,0,15.929,1.566,4.302,4.302,4.302,90,90,90,4.113,0.6222222222,0.8039707237999999,5.553999999999999,5.86,1.4698021411895752,1.4031774997711182,0.8039707237999999
504,171,AlHoO3,Al,Ho,0,3,3,0.54,0.9,rhombohedral,-3.357,0.238,0,12.949,3.715,5.966,5.966,5.966,54.1,54.1,54.1,-6.308,0.6666666667,0.5939696962,5.986000000000001,6.018,1.61,1.23,0.5939696962
505,1357,EuPdO3,Eu,Pd,0,2,4,1.48,0.62,orthorhombic,-1.884,-0.09,0,11.872,0.454,5.416,5.659,7.747,90,90,90,0.085,0.4592592593,1.0157929902,5.67,8.34,1.4698021411895752,2.2,1.0157929902
506,3089,PbHfO3,Pb,Hf,1,2,4,1.49,0.71,orthorhombic,-2.824,0.008,0,13.752,3.019,5.759,5.829,8.193,90,90,90,,0.5259259259000001,0.974846242,7.416,6.65,2.33,1.3,0.974846242
507,59,AcTbO3,Ac,Tb,0,element not in BV,element not in BV,1.12,0.84,orthorhombic,-3.561,0.009,0,16.078,4.382,6.009,6.201,8.63,90,90,90,5.379,0.6222222222,0.7975131276,5.17,5.86,1.1,1.4031774997711182,0.7975131276
508,5081,YPmO3,Y,Pm,0,element not in BV,element not in BV,1.08,0.97,cubic,-2.591,1.151,0,17.189,1.032,4.413,4.413,4.413,90,90,90,-1.227,0.7185185184999999,0.7406333958,6.38,5.553999999999999,1.22,1.4031774997711182,0.7406333958
509,3808,SbCoO3,Sb,Co,0,3,3,0.76,0.61,cubic,-0.969,0.549,0,10.413,0.194,3.734,3.734,3.734,90,90,90,2.075,0.4518518519,0.7612220961,8.641,7.86,2.05,1.88,0.7612220961
510,634,BiRhO3,Bi,Rh,0,3,3,1.38,0.67,orthorhombic,-1.182,0.056,0,12.332,0.513,5.403,5.865,7.783,90,90,90,0.707,0.49629629630000005,0.9556443131999999,7.289,7.46,2.02,2.28,0.9556443131999999
511,2580,NaHoO3,Na,Ho,0,not balanced,not balanced,1.39,0.9,orthorhombic,-2.324,0.192,0,12.936,2.546,6.024,6.133,7.003,90,90,90,-1.332,0.6666666667,0.8610989245999999,5.138999999999999,6.018,0.93,1.23,0.8610989245999999
512,5133,YbHfO3,Yb,Hf,0,2,4,1.14,0.71,orthorhombic,-3.816,-0.109,0,12.29,4.701,5.481,5.69,7.881,90,90,90,6.42,0.5259259259000001,0.8547067404,6.254,6.65,1.4698021411895752,1.3,0.8547067404
513,887,CoCeO3,Co,Ce,0,3,3,0.61,1.01,orthorhombic,-2.281,0.141,0.8,15.922,1.578,5.549,6.416,8.943,90,90,90,-5.095,0.7481481481000001,0.5872581742,7.86,5.54,1.88,1.12,0.5872581742
514,5070,YMnO3,Y,Mn,1,3,3,1.08,0.65,orthorhombic,-2.936,0.023,0.8,11.38,0.379,5.293,5.739,7.493,90,90,90,3.468,0.4814814815,0.8591347390999999,6.38,7.435,1.22,1.55,0.8591347390999999
515,3964,SiGeO3,Si,Ge,0,2,4,0.4,0.53,cubic,-1.121,1.29,,10.332,1.221,3.724,3.724,3.724,90,90,90,3.399,0.39259259259999996,0.6582110995,8.151,7.899,1.9,2.01,0.6582110995
516,2147,LaLiO3,La,Li,0,not balanced,not balanced,1.36,0.76,orthorhombic,-2.263,0.275,0.4,11.446,0.349,5.296,5.689,7.598,90,90,90,-0.623,0.5629629629999999,0.9081797995,5.58,5.392,1.1,0.98,0.9081797995
517,3869,ScAcO3,Sc,Ac,0,element not in BV,element not in BV,0.87,1.12,orthorhombic,-3.507,0.255,0,16.091,3.507,5.962,6.047,8.927,90,90,90,-6.533,0.8296296296,0.6355372689,6.54,5.17,1.36,1.1,0.6355372689
518,1597,GdTlO3,Gd,Tl,0,3,3,1.11,0.89,orthorhombic,-2.271,0.094,0.001,14.239,1.12,5.626,5.984,8.458,90,90,90,0.686,0.6592592593,0.7765547686,6.15,6.108,1.2,1.62,0.7765547686
519,4930,VNpO3,V,Np,0,element not in BV,element not in BV,0.72,0.86,orthorhombic,-2.917,0.247,1.2,13.46,1.331,5.548,5.831,8.321,90,90,90,,0.637037037,0.6623126865,6.74,6.19,1.63,1.36,0.6623126865
520,5304,ZrRbO3,Zr,Rb,0,not balanced,not balanced,0.89,1.52,orthorhombic,-2.464,0.201,0.2,17.128,1.244,6.546,7.221,7.247,90,90,90,-16.391,1.1259259259,0.5518882195,6.84,4.177,1.33,0.82,0.5518882195
521,4097,SnCaO3,Sn,Ca,0,not balanced,not balanced,0.81,1.0,orthorhombic,-2.297,0.249,,14.104,0.878,5.618,5.631,8.916,90,90,90,,0.7407407407,0.6499364457,7.343999999999999,6.1129999999999995,1.96,1,0.6499364457
522,1539,GdBaO3,Gd,Ba,0,not balanced,not balanced,1.11,1.35,orthorhombic,-2.809,0.268,0.201,18.822,0.619,6.507,6.793,8.517,90,90,90,-6.988,1.0,0.6442528451,6.15,5.212000000000001,1.2,0.89,0.6442528451
523,3447,PuDyO3,Pu,Dy,0,element not in BV,element not in BV,0.96,0.99,cubic,-2.92,0.822,1.001,15.802,0.402,4.291,4.291,4.291,90,90,90,,0.7333333333,0.6980413095999999,6.06,5.94,1.28,1.22,0.6980413095999999
524,4920,VLaO3,V,La,0,not balanced,not balanced,0.72,1.03,orthorhombic,-2.973,0.275,0.4,14.351,1.388,5.725,5.85,8.571,90,90,90,-6.936,0.762962963,0.6150046374,6.74,5.58,1.63,1.1,0.6150046374
525,2718,NdErO3,Nd,Er,0,3,3,1.27,0.89,cubic,-3.182,0.576,0,15.243,1.892,4.24,4.24,4.24,90,90,90,4.639,0.6592592593,0.8270623959000001,5.53,6.101,1.14,1.24,0.8270623959000001
526,1600,GdVO3,Gd,V,1,3,3,1.11,0.64,orthorhombic,-3.255,-0.044,0.4,11.626,1.258,5.336,5.697,7.649,90,90,90,4.106,0.47407407409999996,0.8741119004000001,6.15,6.74,1.2,1.63,0.8741119004000001
527,1235,DyVO3,Dy,V,1,2,4,1.19,0.58,orthorhombic,-3.271,-0.03,0.4,11.416,1.112,5.296,5.659,7.618,90,90,90,3.989,0.4296296296,0.9305964892,5.94,6.74,1.22,1.63,0.9305964892
528,1884,HoTbO3,Ho,Tb,0,2,4,1.12,0.76,cubic,-2.688,1.029,0,15.722,1.246,4.284,4.284,4.284,90,90,90,0.263,0.5629629629999999,0.8277505922,6.018,5.86,1.23,1.4031774997711182,0.8277505922
529,4248,TaCsO3,Ta,Cs,0,not balanced,not balanced,0.74,1.67,rhombohedral,-2.037,0.808,0,23.8,1.439,7.021,7.021,7.021,58.8,58.8,58.8,,1.2370370370000001,0.4893553552,7.89,3.8939999999999997,1.5,0.79,0.4893553552
530,1337,EuHfO3,Eu,Hf,0,2,4,1.48,0.71,orthorhombic,-3.844,-0.182,0,12.898,4.521,5.623,5.727,8.01,90,90,90,6.69,0.5259259259000001,0.9714136848,5.67,6.65,1.4698021411895752,1.3,0.9714136848
531,2450,MnPaO3,Mn,Pa,0,element not in BV,element not in BV,0.96,0.91,rhombohedral,-2.66,0.014,1.2,14.951,1.705,6.063,6.063,6.063,57.8,57.8,57.8,4.966,0.6740740741,0.7227507365000001,7.435,5.89,1.55,1.5,0.7227507365000001
532,1668,GeThO3,Ge,Th,0,2,4,0.73,0.94,cubic,-2.162,0.978,0,18.789,0.323,4.546,4.546,4.546,90,90,90,2.191,0.6962962963,0.6422629279,7.899,6.08,2.01,1.3,0.6422629279
533,451,BaCrO3,Ba,Cr,0,2,4,1.61,0.55,orthorhombic,-2.461,0.123,0.4,12.39,0.258,5.607,5.607,7.882,90,90,90,1.778,0.40740740740000003,1.1015979328,5.212000000000001,6.766,0.89,1.66,1.1015979328
534,181,AlNaO3,Al,Na,0,not balanced,not balanced,0.54,1.02,orthorhombic,-1.971,0.321,,11.427,2.09,5.461,5.978,7.002,90,90,90,-11.819,0.7555555556,0.5638952812,5.986000000000001,5.138999999999999,1.61,0.93,0.5638952812
535,4750,TmBO3,Tm,B,0,3,3,1.05,0.27,cubic,-2.537,0.74,0,8.012,3.153,3.422,3.422,3.422,90,90,90,5.493,0.2,1.0475656018000001,6.184,8.298,1.25,2.04,1.0475656018000001
536,1900,InAlO3,In,Al,0,3,3,0.92,0.54,orthorhombic,-2.493,0.061,,9.902,2.606,5.081,5.259,7.411,90,90,90,0.82,0.4,0.8492763986,5.7860000000000005,5.986000000000001,1.78,1.61,0.8492763986
537,5043,YBaO3,Y,Ba,0,not balanced,not balanced,1.08,1.35,orthorhombic,-2.811,0.275,0.2,18.577,0.709,6.515,6.787,8.403,90,90,90,-7.335,1.0,0.6363961031,6.38,5.212000000000001,1.22,0.89,0.6363961031
538,4850,UMgO3,U,Mg,0,4,2,1.17,0.72,orthorhombic,-3.363,0.107,0.4,11.777,3.156,5.348,5.732,7.683,90,90,90,0.9,0.5333333333,0.8608256467000001,6.05,7.646,1.38,1.31,0.8608256467000001
539,4751,TmBaO3,Tm,Ba,0,not balanced,not balanced,1.05,1.35,orthorhombic,-2.861,0.282,0.201,18.032,0.645,6.429,6.76,8.299,90,90,90,-8.566,1.0,0.6285393611,6.184,5.212000000000001,1.25,0.89,0.6285393611
540,3290,PrBO3,Pr,B,0,4,2,0.96,0.27,cubic,-2.4,0.885,0,9.076,2.243,3.567,3.567,3.567,90,90,90,4.889,0.2,1.0082818917,5.46,8.298,1.13,2.04,1.0082818917
541,892,CoDyO3,Co,Dy,0,3,3,0.61,0.91,rhombohedral,-2.431,0.121,0.799,13.398,1.607,5.988,5.988,5.988,55,55,55,-4.651,0.6740740741,0.6132430492000001,7.86,5.94,1.88,1.22,0.6132430492000001
542,4535,ThCaO3,Th,Ca,0,4,2,1.21,1.0,cubic,-2.698,1.122,0,14.304,0.815,4.151,4.151,4.151,90,90,90,,0.7407407407,0.7702950467,6.08,6.1129999999999995,1.3,1,0.7702950467
543,2316,LuScO3,Lu,Sc,0,3,3,1.03,0.75,cubic,-3.189,0.696,0,12.449,2.638,3.963,3.963,3.963,90,90,90,4.801,0.5555555556,0.8013876853,5.4259,6.54,1.27,1.36,0.8013876853
544,401,BNbO3,B,Nb,0,1,5,0.27,0.64,cubic,-1.19,1.383,-0.001,12.499,1.744,3.968,3.968,3.968,90,90,90,4.31,0.47407407409999996,0.5756346661,8.298,6.88,2.04,1.6,0.5756346661
545,328,AuNbO3,Au,Nb,0,element not in BV,element not in BV,0.93,0.68,rhombohedral,-1.71,0.319,0,12.368,0.634,5.718,5.718,5.718,57.2,57.2,57.2,3.792,0.5037037037,0.7941888971,9.225,6.88,2.54,1.6,0.7941888971
546,3302,PrErO3,Pr,Er,0,3,3,1.18,0.89,orthorhombic,-3.704,0.033,0,14.623,4.898,5.781,6.039,8.377,90,90,90,4.728,0.6592592593,0.7986518555,5.46,6.101,1.13,1.24,0.7986518555
547,4838,UGaO3,U,Ga,0,3,3,1.03,0.62,orthorhombic,-2.75,0.242,0.6,11.842,1.067,5.475,5.502,7.862,90,90,90,3.046,0.4592592593,0.8542711367,6.05,5.999,1.38,1.81,0.8542711367
548,3335,PrRhO3,Pr,Rh,1,3,3,1.18,0.67,orthorhombic,-2.316,-0.06,0,12.426,0.708,5.421,5.849,7.839,90,90,90,0.878,0.49629629630000005,0.8856337408,5.46,7.46,1.13,2.28,0.8856337408
549,5054,YErO3,Y,Er,0,3,3,1.08,0.89,cubic,-3.01,0.842,0,15.017,1.895,4.219,4.219,4.219,90,90,90,1.808,0.6592592593,0.7670845884999999,6.38,6.101,1.22,1.24,0.7670845884999999
550,2111,KVO3,K,V,0,1,5,1.64,0.54,tetragonal,-2.271,0.099,0,12.542,0.284,3.685,3.685,4.618,90,90,90,2.017,0.4,1.1186504104000001,4.341,6.74,0.82,1.63,1.1186504104000001
551,4737,TlTmO3,Tl,Tm,0,not balanced,not balanced,1.7,0.96,orthorhombic,-2.346,0.088,0,13.809,0.907,5.701,5.804,8.347,90,90,90,-2.758,0.7111111111,0.9336258366,6.108,6.184,1.62,1.25,0.9336258366
552,1199,DyLuO3,Dy,Lu,0,not balanced,not balanced,1.08,0.86,cubic,-3.148,0.758,0,14.264,2.163,4.147,4.147,4.147,90,90,90,4.616,0.637037037,0.7774975015000001,5.94,5.4259,1.22,1.27,0.7774975015000001
553,3237,PmHoO3,Pm,Ho,0,element not in BV,element not in BV,1.14,0.9,cubic,-3.105,0.671,0,15.393,1.764,4.254,4.254,4.254,90,90,90,4.431,0.6666666667,0.7825315045,5.553999999999999,6.018,1.4698021411895752,1.23,0.7825315045
554,2463,MnSiO3,Mn,Si,0,2,4,0.96,0.4,orthorhombic,-2.487,0.227,1,8.709,3.851,4.928,5.026,7.033,90,90,90,5.482,0.2962962963,0.9333809512000001,7.435,8.151,1.55,1.9,0.9333809512000001
555,3306,PrGdO3,Pr,Gd,0,3,3,1.18,0.94,cubic,-3.016,0.668,0,16.368,1.533,4.342,4.342,4.342,90,90,90,4.197,0.6962962963,0.7812140420999999,5.46,6.15,1.13,1.2,0.7812140420999999
556,1538,GdBO3,Gd,B,0,not balanced,not balanced,1.11,0.27,cubic,-2.513,0.779,0,8.405,2.803,3.477,3.477,3.477,90,90,90,5.367,0.2,1.0737547418,6.15,8.298,1.2,2.04,1.0737547418
557,1775,HgHfO3,Hg,Hf,0,2,4,1.14,0.71,rhombohedral,-2.418,0.067,0,12.975,1.478,5.758,5.758,5.758,58.3,58.3,58.3,0.852,0.5259259259000001,0.8547067404,10.437000000000001,6.65,2,1.3,0.8547067404
558,2296,LuMnO3,Lu,Mn,1,3,3,1.03,0.65,orthorhombic,-2.982,0.052,0.8,10.871,0.422,5.189,5.658,7.406,90,90,90,3.157,0.4814814815,0.8414570695999999,5.4259,7.435,1.27,1.55,0.8414570695999999
559,1442,FeSmO3,Fe,Sm,0,not balanced,not balanced,0.85,0.96,orthorhombic,-2.544,0.19,1,13.318,1.655,5.591,5.605,8.499,90,90,90,,0.7111111111,0.6734350297,7.87,5.64,1.83,1.17,0.6734350297
560,185,AlNpO3,Al,Np,0,element not in BV,element not in BV,0.54,0.86,orthorhombic,-3.234,0.268,0.8,13.507,1.468,5.448,5.46,9.082,90,90,90,-1.407,0.637037037,0.6047202789,5.986000000000001,6.19,1.61,1.36,0.6047202789
561,1136,CuPaO3,Cu,Pa,0,element not in BV,element not in BV,0.68,0.91,rhombohedral,-2.425,-0.243,0,13.659,2.633,5.994,5.994,5.994,55.6,55.6,55.6,4.128,0.6740740741,0.6351445866,7.726,5.89,1.9,1.5,0.6351445866
562,17,AcErO3,Ac,Er,0,element not in BV,element not in BV,1.12,0.89,orthorhombic,-3.748,-0.01,0,15.547,4.544,5.96,6.123,8.521,90,90,90,5.682,0.6592592593,0.7797114953000001,5.17,6.101,1.1,1.24,0.7797114953000001
563,3120,PbSiO3,Pb,Si,0,2,4,1.49,0.4,tetragonal,-2.126,0.276,,11.559,1.837,3.493,3.493,4.738,90,90,90,4.91,0.2962962963,1.1475332906,7.416,8.151,2.33,1.9,1.1475332906
564,2226,LiNbO3,Li,Nb,1,1,5,0.92,0.64,rhombohedral,-2.704,0.033,0,10.725,2.613,5.467,5.467,5.467,56.9,56.9,56.9,4.763,0.47407407409999996,0.8065991926,5.392,6.88,0.98,1.6,0.8065991926
565,4970,WBaO3,W,Ba,0,4,2,0.66,1.35,rhombohedral,-2.419,0.308,0,18.913,1.695,6.269,6.269,6.269,63.9,63.9,63.9,-18.683,1.0,0.5264017149,7.98,5.212000000000001,2.36,0.89,0.5264017149
566,1831,HoBaO3,Ho,Ba,0,not balanced,not balanced,1.12,1.35,orthorhombic,-2.84,0.277,0.2,18.294,0.644,6.493,6.782,8.309,90,90,90,-7.927,1.0,0.6468717590999999,6.018,5.212000000000001,1.23,0.89,0.6468717590999999
567,1012,CrTiO3,Cr,Ti,0,2,4,0.8,0.61,orthorhombic,-2.743,0.062,0.8,10.181,0.326,5.067,5.35,7.511,90,90,90,1.738,0.4518518519,0.7756528467,6.766,6.82,1.66,1.54,0.7756528467
568,205,AlTbO3,Al,Tb,0,3,3,0.54,0.92,rhombohedral,-3.197,0.251,0,13.312,3.738,6.025,6.025,6.025,54,54,54,-6.525,0.6814814815000001,0.5887364829999999,5.986000000000001,5.86,1.61,1.4031774997711182,0.5887364829999999
569,4866,URbO3,U,Rb,0,not balanced,not balanced,1.17,1.52,orthorhombic,-2.834,0.28,0.2,18.845,2.31,5.387,5.747,12.174,90,90,90,-10.746,1.1259259259,0.6208742468999999,6.05,4.177,1.38,0.82,0.6208742468999999
570,5058,YGdO3,Y,Gd,0,3,3,1.08,0.94,cubic,-2.798,1.002,0,16.091,1.371,4.317,4.317,4.317,90,90,90,0.203,0.6962962963,0.7503360167,6.38,6.15,1.22,1.2,0.7503360167
571,31,AcLuO3,Ac,Lu,0,element not in BV,element not in BV,1.12,0.86,orthorhombic,-3.793,-0.022,0,15.05,4.709,5.905,6.047,8.429,90,90,90,5.945,0.637037037,0.7902958143000001,5.17,5.4259,1.1,1.27,0.7902958143000001
572,4846,UKO3,U,K,0,not balanced,not balanced,1.17,1.38,orthorhombic,-2.87,0.27,0.2,17.52,2.296,5.403,5.74,11.299,90,90,90,-3.13,1.0222222222,0.6527139518999999,6.05,4.341,1.38,0.82,0.6527139518999999
573,834,CeLuO3,Ce,Lu,1,3,3,1.34,0.86,orthorhombic,-3.736,0.005,0,14.375,5.074,5.767,5.994,8.318,90,90,90,5.161,0.637037037,0.8606865345999999,5.54,5.4259,1.12,1.27,0.8606865345999999
574,1497,GaNdO3,Ga,Nd,0,not balanced,not balanced,0.62,0.98,rhombohedral,-2.749,0.143,0,14.98,3.279,6.254,6.254,6.254,54.3,54.3,54.3,-4.496,0.7259259259,0.5978542313,5.999,5.53,1.81,1.14,0.5978542313
575,1008,CrTbO3,Cr,Tb,0,2,4,0.8,0.76,orthorhombic,-2.724,0.34,0.6,12.563,1.461,5.492,5.623,8.135,90,90,90,-4.733,0.5629629629999999,0.7205116491,6.766,5.86,1.66,1.4031774997711182,0.7205116491
576,3108,Pb2O3,Pb,Pb,0,not balanced,not balanced,1.49,0.99,orthorhombic,-1.18,0.054,,15.14,0.516,5.885,6.086,8.454,90,90,90,1.215,0.7333333333,0.8581979737000001,7.416,7.416,2.33,2.33,0.8581979737000001
577,5102,YTmO3,Y,Tm,0,3,3,1.08,0.88,cubic,-3.07,0.8,0,14.729,1.869,4.192,4.192,4.192,90,90,90,2.191,0.6518518519,0.7705244297,6.38,6.184,1.22,1.25,0.7705244297
578,1827,HoAlO3,Ho,Al,1,3,3,1.12,0.54,orthorhombic,-3.595,-0.025,0,10.127,6.137,5.149,5.345,7.36,90,90,90,6.291,0.4,0.924102513,6.018,5.986000000000001,1.23,1.61,0.924102513
579,1838,HoCrO3,Ho,Cr,1,3,3,1.12,0.62,orthorhombic,-3.211,-0.033,0.6,11.031,2.474,5.247,5.561,7.561,90,90,90,4.185,0.4592592593,0.8865755073999999,6.018,6.766,1.23,1.66,0.8865755073999999
580,4778,TmMnO3,Tm,Mn,0,2,4,1.09,0.53,orthorhombic,-2.981,0.043,0.8,11.019,0.411,5.22,5.688,7.422,90,90,90,3.296,0.39259259259999996,0.917734333,6.184,7.435,1.25,1.55,0.917734333
581,3906,ScNdO3,Sc,Nd,0,not balanced,not balanced,0.87,0.98,orthorhombic,-3.506,0.23,0,14.353,3.62,5.768,5.89,8.45,90,90,90,-4.7,0.7259259259,0.6737240576000001,6.54,5.53,1.36,1.14,0.6737240576000001
582,1187,DyFeO3,Dy,Fe,1,3,3,1.08,0.65,orthorhombic,-2.782,-0.033,1,11.252,1.179,5.283,5.597,7.611,90,90,90,3.193,0.4814814815,0.8591347390999999,5.94,7.87,1.22,1.83,0.8591347390999999
583,2,AcAlO3,Ac,Al,0,element not in BV,element not in BV,1.12,0.54,cubic,-3.532,-0.11,0,11.487,4.307,3.858,3.858,3.858,90,90,90,6.695,0.4,0.924102513,5.17,5.986000000000001,1.1,1.61,0.924102513
584,2268,LuBO3,Lu,B,0,3,3,1.03,0.27,cubic,-2.525,0.88,0,7.901,3.125,3.406,3.406,3.406,90,90,90,5.405,0.2,1.0388358884,5.4259,8.298,1.27,2.04,1.0388358884
585,5116,YbBaO3,Yb,Ba,0,not balanced,not balanced,1.04,1.35,orthorhombic,-2.433,0.242,,16.717,2.067,6.361,6.426,8.18,90,90,90,-2.149,1.0,0.6259204471,6.254,5.212000000000001,1.4698021411895752,0.89,0.6259204471
586,1634,GeKO3,Ge,K,0,not balanced,not balanced,0.63,1.38,orthorhombic,-1.601,0.134,,15.298,0.406,5.311,6.198,9.294,90,90,90,-4.575,1.0222222222,0.5128466764999999,7.899,4.341,2.01,0.82,0.5128466764999999
587,131,AgTaO3,Ag,Ta,1,1,5,1.28,0.64,rhombohedral,-2.247,0.018,0,12.114,2.03,5.584,5.584,5.584,59.3,59.3,59.3,5.586,0.47407407409999996,0.9345180073,7.5760000000000005,7.89,1.93,1.5,0.9345180073
588,4060,SmPrO3,Sm,Pr,0,2,4,1.32,0.85,cubic,-2.54,1.099,0,18.21,0.993,4.499,4.499,4.499,90,90,90,2.566,0.6296296296,0.8581705026,5.64,5.46,1.17,1.13,0.8581705026
589,862,CeTbO3,Ce,Tb,0,3,3,1.34,0.92,cubic,-2.978,0.562,0,16.167,1.754,4.324,4.324,4.324,90,90,90,4.476,0.6814814815000001,0.8379371106999999,5.54,5.86,1.12,1.4031774997711182,0.8379371106999999
590,565,BeSiO3,Be,Si,0,2,4,0.45,0.4,cubic,-1.794,1.243,,8.185,0.352,3.446,3.446,3.446,90,90,90,4.114,0.2962962963,0.7273098320999999,9.322000000000001,8.151,1.57,1.9,0.7273098320999999
591,3297,PrCoO3,Pr,Co,1,3,3,1.18,0.61,orthorhombic,-2.415,-0.001,0,11.367,1.178,5.39,5.477,7.701,90,90,90,,0.4518518519,0.9127449778,5.46,7.86,1.13,1.88,0.9127449778
592,1285,ErPmO3,Er,Pm,0,element not in BV,element not in BV,1.06,0.97,cubic,-2.515,1.271,0,17.07,0.344,4.403,4.403,4.403,90,90,90,-1.673,0.7185185184999999,0.7345376477,6.101,5.553999999999999,1.24,1.4031774997711182,0.7345376477
593,2730,NdLaO3,Nd,La,0,3,3,1.27,1.03,cubic,-2.638,1.028,0,18.563,0.693,4.528,4.528,4.528,90,90,90,2.384,0.762962963,0.7784116667000001,5.53,5.58,1.14,1.1,0.7784116667000001
594,5189,ZnBaO3,Zn,Ba,0,not balanced,not balanced,0.9,1.35,orthorhombic,-1.712,0.219,,16.147,2.081,6.108,6.555,8.065,90,90,90,-8.098,1.0,0.589255651,9.394,5.212000000000001,1.65,0.89,0.589255651
595,2373,MgNdO3,Mg,Nd,0,not balanced,not balanced,0.89,0.98,orthorhombic,-2.762,0.289,0.2,13.928,0.68,5.633,5.854,8.447,90,90,90,-3.289,0.7259259259,0.6797936437000001,7.646,5.53,1.31,1.14,0.6797936437000001
596,172,AlInO3,Al,In,0,3,3,0.54,0.8,orthorhombic,-2.354,0.201,,11.102,1.524,5.22,5.226,8.141,90,90,90,-5.702,0.5925925926,0.6215961937,5.986000000000001,5.7860000000000005,1.61,1.78,0.6215961937
597,2642,NbCsO3,Nb,Cs,0,not balanced,not balanced,0.77,1.67,orthorhombic,-2.574,0.102,0,21.793,3.412,6.001,6.281,11.563,90,90,90,,1.2370370370000001,0.4963795947,6.88,3.8939999999999997,1.6,0.79,0.4963795947
598,2275,LuCoO3,Lu,Co,0,3,3,1.03,0.61,orthorhombic,-2.573,0.035,0,10.328,1.41,5.114,5.546,7.283,90,90,90,1.89,0.4518518519,0.8586296629000001,5.4259,7.86,1.27,1.88,0.8586296629000001
599,913,CoNdO3,Co,Nd,0,3,3,0.61,0.98,rhombohedral,-2.336,0.122,0.8,14.725,1.597,6.174,6.174,6.174,55.1,55.1,55.1,,0.7259259259,0.5948194383,7.86,5.53,1.88,1.14,0.5948194383
600,1912,InCsO3,In,Cs,0,not balanced,not balanced,0.92,1.67,orthorhombic,-0.889,0.609,,17.215,0.216,4.859,5.957,11.895,90,90,90,,1.2370370370000001,0.5315007925,5.7860000000000005,3.8939999999999997,1.78,0.79,0.5315007925
601,4332,TbHoO3,Tb,Ho,0,4,2,0.88,0.9,cubic,-2.854,0.863,0,15.23,1.749,4.239,4.239,4.239,90,90,90,1.499,0.6666666667,0.7008213876,5.86,6.018,1.4698021411895752,1.23,0.7008213876
602,3225,PmCrO3,Pm,Cr,0,element not in BV,element not in BV,1.14,0.58,orthorhombic,-3.143,-0.063,0.6,11.625,2.375,5.386,5.594,7.716,90,90,90,4.594,0.4296296296,0.9122776606999999,5.553999999999999,6.766,1.4698021411895752,1.66,0.9122776606999999