,Chemical formula,A,B,In literature,Valence A,Valence B,Radius A [ang],Radius B [ang],Lowest distortion,Formation energy [eV/atom],Stability [eV/atom],Magnetic moment [mu_B],Volume per atom [A^3/atom],Band gap [eV],a [ang],b [ang],c [ang],alpha [deg],beta [deg],gamma [deg],Vacancy energy [eV/O atom],Octahedral Factor,Tolerance Factor,A Ionization Energy,B Ionization Energy,A Electronegativity,B Electronegativity,Goldschmidt Tolerance Factor
508,MoPbO3,Mo,Pb,0,not balanced,not balanced,0.73,0.99,rhombohedral,-1.516,0.37200000000000005,0,16.019000000000002,0.503,5.757000000000001,5.757000000000001,5.757000000000001,68.9,68.9,68.9,-,0.7333333333,0.6285393611,7.099,7.416,2.16,2.33,0.6301830309
667,PuMgO3,Pu,Mg,0,element not in BV,element not in BV,0.96,0.72,orthorhombic,-3.148,-0.013000000000000001,0.8,11.539000000000001,1.607,5.332000000000001,5.672999999999999,7.629,90.0,90.0,90.0,-0.714,0.5333333333,0.7890901761,6.06,7.646,1.28,1.31,0.7871566055
233,DyHoO3,Dy,Ho,0,not balanced,not balanced,1.08,0.9,cubic,-2.9560000000000004,0.9059999999999999,0,15.202,1.781,4.236000000000001,4.236000000000001,4.236000000000001,90.0,90.0,90.0,1.312,0.6666666667,0.7636753237,5.94,6.018,1.22,1.23,0.7624455728
520,NaSbO3,Na,Sb,0,1,5,1.39,0.6,orthorhombic,-1.8319999999999999,0.09,-,11.477,1.6469999999999998,5.42,5.486000000000001,7.718999999999999,90.0,90.0,90.0,2.765,0.44444444439999997,0.9935756823,5.138999999999999,8.641,0.93,2.05,0.9864139598
341,HfCaO3,Hf,Ca,0,not balanced,not balanced,0.83,1.0,orthorhombic,-3.406,0.263,0,13.347000000000001,3.862,5.542000000000001,5.6979999999999995,8.453,90.0,90.0,90.0,-,0.7407407407,0.6559543757,6.65,6.1129999999999995,1.3,1.0,0.6570200509
527,NbAgO3,Nb,Ag,0,3,3,0.72,0.75,orthorhombic,-1.87,0.182,0,14.047,1.521,5.571000000000001,5.888,8.565,90.0,90.0,90.0,-8.804,0.5555555556,0.6970052556999999,6.88,7.5760000000000005,1.6,1.93,0.6972401748999999
260,ErMnO3,Er,Mn,0,3,3,1.06,0.65,orthorhombic,-2.971,0.036000000000000004,0.8,11.142999999999999,0.273,5.242999999999999,5.699,7.457000000000001,90.0,90.0,90.0,3.37,0.4814814815,0.8520636712999999,6.101,7.435,1.24,1.55,0.8485281374
504,MnSrO3,Mn,Sr,0,not balanced,not balanced,0.96,1.18,orthorhombic,-2.149,0.26,0.6,14.854000000000001,0.604,5.631,5.697,9.261000000000001,90.0,90.0,90.0,-5.9,0.8740740740999999,0.645619235,7.435,5.695,1.55,0.95,0.6468108540999999
704,SbGaO3,Sb,Ga,0,3,3,0.76,0.62,tetragonal,-1.712,0.129,-,12.241,1.364,3.627,3.627,4.6530000000000005,90.0,90.0,90.0,2.757,0.4592592593,0.7573580245,8.641,5.999,2.05,1.81,0.7561141819
761,SmRhO3,Sm,Rh,1,2,4,1.32,0.6,orthorhombic,-2.37,-0.053,0,11.987,0.7829999999999999,5.337000000000001,5.818,7.72,90.0,90.0,90.0,0.38,0.44444444439999997,0.9681923619,5.64,7.46,1.17,2.28,0.9616652224
20,AcRhO3,Ac,Rh,0,element not in BV,element not in BV,1.12,0.61,orthorhombic,-2.334,-0.077,0,13.23,0.604,5.635,5.837000000000001,8.046,90.0,90.0,90.0,1.899,0.4518518519,0.8910988518,5.17,7.46,1.1,2.28,0.8865219346
46,AlKO3,Al,K,0,not balanced,not balanced,0.54,1.38,orthorhombic,-1.982,0.285,-,14.152000000000001,2.012,5.624,6.742999999999999,7.4639999999999995,90.0,90.0,90.0,-16.374,1.0222222222,0.4895354639,5.986000000000001,4.341,1.61,0.82,0.4934486171
441,LiNpO3,Li,Np,0,element not in BV,element not in BV,0.92,0.86,rhombohedral,-2.8819999999999997,0.05,0.4,12.707,1.6469999999999998,5.877000000000001,5.877000000000001,5.877000000000001,55.1,55.1,55.1,1.274,0.637037037,0.7263042504,5.392,6.19,0.98,1.36,0.7258795276000001
901,VAgO3,V,Ag,0,not balanced,not balanced,0.72,0.95,orthorhombic,-1.633,0.07400000000000001,0,13.017000000000001,1.337,5.178999999999999,5.572,9.022,90.0,90.0,90.0,-6.146,0.7037037037,0.6363961031,6.74,7.5760000000000005,1.63,1.93,0.6379005856000001
399,KPaO3,K,Pa,1,element not in BV,element not in BV,1.64,0.91,cubic,-2.947,-0.5670000000000001,0,16.977999999999998,4.236000000000001,4.395,4.395,4.395,90.0,90.0,90.0,6.314,0.6740740741,0.9355085290999999,4.341,5.89,0.82,1.5,0.9305647683
872,TmHoO3,Tm,Ho,0,not balanced,not balanced,1.05,0.9,cubic,-2.863,1.04,0,15.075999999999999,1.1540000000000001,4.224,4.224,4.224,90.0,90.0,90.0,0.436,0.6666666667,0.7542472333,6.184,6.018,1.25,1.23,0.7532224408
827,ThCrO3,Th,Cr,0,4,2,1.21,0.8,orthorhombic,-3.282,0.08800000000000001,0.8,13.172,2.02,5.486000000000001,6.329,7.587999999999999,90.0,90.0,90.0,4.11,0.5925925926,0.8419503999,6.08,6.766,1.3,1.66,0.8388857721999999
963,ZrBeO3,Zr,Be,0,4,2,0.89,0.45,cubic,-2.7060000000000004,0.6609999999999999,0,8.145,0.9440000000000001,3.44,3.44,3.44,90.0,90.0,90.0,3.63,0.3333333333,0.8799551055,6.84,9.322000000000001,1.33,1.57,0.8752835291
634,PrGaO3,Pr,Ga,1,3,3,1.18,0.62,orthorhombic,-2.875,-0.036000000000000004,0,11.788,3.7739999999999996,5.468,5.547999999999999,7.771,90.0,90.0,90.0,4.936,0.4592592593,0.9081117545,5.46,5.999,1.13,1.81,0.9031363839
790,SrSnO3,Sr,Sn,1,2,4,1.44,0.69,orthorhombic,-2.495,-0.042,-,13.439,2.116,5.733,5.766,8.131,90.0,90.0,90.0,3.937,0.5111111111,0.9670725095999999,5.695,7.343999999999999,0.95,1.96,0.9608532338
609,PbHfO3,Pb,Hf,1,2,4,1.49,0.71,orthorhombic,-2.824,0.008,0,13.752,3.0189999999999997,5.7589999999999995,5.829,8.193,90.0,90.0,90.0,-,0.5259259259000001,0.974846242,7.416,6.65,2.33,1.3,0.968501705
784,SrPaO3,Sr,Pa,0,element not in BV,element not in BV,1.44,0.91,orthorhombic,-3.18,-0.14400000000000002,0.2,16.648,2.529,6.087000000000001,6.268,8.727,90.0,90.0,90.0,5.517,0.6740740741,0.8729327077,5.695,5.89,0.95,1.5,0.869343402
631,PrDyO3,Pr,Dy,0,3,3,1.18,0.91,cubic,-3.123,0.59,0,15.805,1.646,4.291,4.291,4.291,90.0,90.0,90.0,4.491,0.6740740741,0.79158414,5.46,5.94,1.13,1.22,0.7897556256999999
205,CuCeO3,Cu,Ce,0,not balanced,not balanced,0.68,0.94,rhombohedral,-1.953,0.204,0.4,15.972999999999999,0.46399999999999997,6.702999999999999,6.702999999999999,6.702999999999999,49.4,49.4,49.4,-4.235,0.6962962963,0.6268239152,7.726,5.54,1.9,1.12,0.6285393611
645,PrScO3,Pr,Sc,1,3,3,1.18,0.75,orthorhombic,-3.721,-0.028999999999999998,0,13.073,4.487,5.596,5.811,8.04,90.0,90.0,90.0,5.422,0.5555555556,0.8518953126000001,5.46,6.54,1.13,1.36,0.8485281374
382,InAcO3,In,Ac,0,element not in BV,element not in BV,0.92,1.12,orthorhombic,-2.553,0.195,0,16.666,1.489,6.0729999999999995,6.095,9.005,90.0,90.0,90.0,-3.62,0.8296296296,0.6498511714,5.7860000000000005,5.17,1.78,1.1,0.6509871953999999
802,TaNaO3,Ta,Na,0,not balanced,not balanced,0.74,1.02,orthorhombic,-2.633,0.298,0,12.859000000000002,2.958,5.468,5.632000000000001,8.351,90.0,90.0,90.0,-11.349,0.7555555556,0.6235667395000001,7.89,5.138999999999999,1.5,0.93,0.6252927734
247,ErBaO3,Er,Ba,0,not balanced,not balanced,1.06,1.35,orthorhombic,-2.8480000000000003,0.276,0.2,18.174,0.6409999999999999,6.465,6.767,8.309,90.0,90.0,90.0,-8.217,1.0,0.6311582751,6.101,5.212000000000001,1.24,0.89,0.6325391570000001
335,GeThO3,Ge,Th,0,2,4,0.73,0.94,cubic,-2.162,0.978,0,18.789,0.32299999999999995,4.546,4.546,4.546,90.0,90.0,90.0,2.191,0.6962962963,0.6422629279,7.899,6.08,2.01,1.3,0.6436484803
102,BiInO3,Bi,In,1,3,3,1.38,0.8,orthorhombic,-1.621,0.038,-,13.878,2.645,5.644,6.039,8.144,90.0,90.0,90.0,0.639,0.5925925926,0.8978611687000001,7.289,5.7860000000000005,2.02,1.78,0.8935258417
251,ErCuO3,Er,Cu,0,3,3,1.06,0.54,orthorhombic,-2.296,0.052000000000000005,0,10.81,0.26899999999999996,5.178999999999999,5.849,7.1370000000000005,90.0,90.0,90.0,0.539,0.4,0.9016546787,6.101,7.726,1.24,1.9,0.8966405576
550,NdLaO3,Nd,La,0,3,3,1.27,1.03,cubic,-2.638,1.028,0,18.563,0.693,4.5280000000000005,4.5280000000000005,4.5280000000000005,90.0,90.0,90.0,2.384,0.762962963,0.7784116667000001,5.53,5.58,1.14,1.1,0.7769444879999999
623,PdSrO3,Pd,Sr,0,not balanced,not balanced,0.75,1.18,rhombohedral,-1.31,0.326,-,16.018,0.599,6.077000000000001,6.077000000000001,6.077000000000001,60.4,60.4,60.4,-9.287,0.8740740740999999,0.5869265773,8.34,5.695,2.2,0.95,0.589255651
184,CrBiO3,Cr,Bi,0,not balanced,not balanced,0.57,0.9,rhombohedral,-1.6480000000000001,0.33,0.6,15.008,0.703,6.205,6.205,6.205,55.2,55.2,55.2,-,0.6666666667,0.6033977866,6.766,7.289,1.66,2.02,0.60565233
723,ScInO3,Sc,In,0,not balanced,not balanced,0.87,0.8,orthorhombic,-2.677,0.149,0,11.99,3.175,5.317,5.581,8.082,90.0,90.0,90.0,0.677,0.5925925926,0.7301288624,6.54,5.7860000000000005,1.36,1.78,0.7296056333
361,HoBaO3,Ho,Ba,0,not balanced,not balanced,1.12,1.35,orthorhombic,-2.84,0.27699999999999997,0.2,18.294,0.644,6.492999999999999,6.782,8.309,90.0,90.0,90.0,-7.927,1.0,0.6468717590999999,6.018,5.212000000000001,1.23,0.89,0.6479669413
569,NpBaO3,Np,Ba,0,element not in BV,element not in BV,0.98,1.35,orthorhombic,-3.0669999999999997,0.322,0.6,18.349,2.404,6.602,6.691,8.308,90.0,90.0,90.0,-,1.0,0.610206963,6.19,5.212000000000001,1.36,0.89,0.6119687779
512,NaDyO3,Na,Dy,0,not balanced,not balanced,1.39,0.99,orthorhombic,-2.314,0.191,0,13.022,2.472,6.017,6.145,7.042999999999999,90.0,90.0,90.0,-1.337,0.7333333333,0.8279797352,5.138999999999999,5.94,0.93,1.22,0.8254510123000001
89,BeCaO3,Be,Ca,0,not balanced,not balanced,0.45,1.0,orthorhombic,-2.398,0.09300000000000001,-,10.423,2.65,5.074,5.731,7.167999999999999,90.0,90.0,90.0,-9.03,0.7407407407,0.5416137047,9.322000000000001,6.1129999999999995,1.57,1.0,0.5450614772
107,BiRhO3,Bi,Rh,0,3,3,1.38,0.67,orthorhombic,-1.182,0.055999999999999994,0,12.332,0.513,5.403,5.865,7.7829999999999995,90.0,90.0,90.0,0.707,0.49629629630000005,0.9556443131999999,7.289,7.46,2.02,2.28,0.9496409912
0,Ac2O3,Ac,Ac,0,element not in BV,element not in BV,1.12,1.12,cubic,-2.7319999999999998,0.848,0,20.836,0.332,4.705,4.705,4.705,90.0,90.0,90.0,3.15,0.8296296296,0.7071067812,5.17,5.17,1.1,1.1,0.7071067812
439,LiNbO3,Li,Nb,1,1,5,0.92,0.64,rhombohedral,-2.7039999999999997,0.033,0,10.725,2.613,5.4670000000000005,5.4670000000000005,5.4670000000000005,56.9,56.9,56.9,4.763,0.47407407409999996,0.8065991926,5.392,6.88,0.98,1.6,0.8041606531000001
60,AlYO3,Al,Y,0,3,3,0.54,0.9,rhombohedral,-3.324,0.23600000000000002,0,13.18,3.81,6.002999999999999,6.002999999999999,6.002999999999999,54.1,54.1,54.1,-6.49,0.6666666667,0.5939696962,5.986000000000001,6.38,1.61,1.22,0.5964291979999999
556,NdSmO3,Nd,Sm,0,3,3,1.27,0.96,cubic,-2.8339999999999996,0.8270000000000001,0,17.064,1.318,4.402,4.402,4.402,90.0,90.0,90.0,0.939,0.7111111111,0.801999899,5.53,5.64,1.14,1.17,0.7999894516
275,FePrO3,Fe,Pr,0,not balanced,not balanced,0.85,0.92,orthorhombic,-2.487,0.204,1,13.985999999999999,1.676,5.669,5.684,8.681000000000001,90.0,90.0,90.0,-,0.6814814815000001,0.6853017263,7.87,5.46,1.83,1.13,0.6857716628
956,ZnNdO3,Zn,Nd,0,not balanced,not balanced,0.9,0.98,orthorhombic,-2.275,0.258,0.2,13.873,0.509,5.457999999999999,5.847,8.693999999999999,90.0,90.0,90.0,-4.769,0.7259259259,0.6828284368,9.394,5.53,1.65,1.14,0.6833384859999999
457,LuDyO3,Lu,Dy,0,3,3,1.03,0.91,cubic,-2.753,1.153,0,15.334000000000001,0.591,4.248,4.248,4.248,90.0,90.0,90.0,-0.415,0.6740740741,0.7446522740000001,5.4259,5.94,1.27,1.22,0.7438396009999999
947,YSmO3,Y,Sm,0,3,3,1.08,0.96,cubic,-2.647,1.1079999999999999,0,16.879,1.24,4.386,4.386,4.386,90.0,90.0,90.0,-0.803,0.7111111111,0.7438396009999999,6.38,5.64,1.22,1.17,0.7430613632999999
283,GaKO3,Ga,K,0,not balanced,not balanced,0.62,1.38,orthorhombic,-1.386,0.257,-,15.222000000000001,1.8869999999999998,5.73,6.7589999999999995,7.86,90.0,90.0,90.0,-14.002,1.0222222222,0.5102565417,5.999,4.341,1.81,0.82,0.5137970137
803,TaNpO3,Ta,Np,0,element not in BV,element not in BV,0.74,0.86,rhombohedral,-2.79,0.313,0.8,15.29,0.55,5.749,5.749,5.749,66.4,66.4,66.4,-0.811,0.637037037,0.6687118428000001,7.89,6.19,1.5,1.36,0.6695612884000001
949,YTmO3,Y,Tm,0,3,3,1.08,0.88,cubic,-3.07,0.8,0,14.729000000000001,1.869,4.192,4.192,4.192,90.0,90.0,90.0,2.191,0.6518518519,0.7705244297,6.38,6.184,1.22,1.25,0.7691336918
195,CrSmO3,Cr,Sm,0,not balanced,not balanced,0.57,0.96,rhombohedral,-2.799,0.35200000000000004,0.6,14.555,1.635,6.143,6.143,6.143,55.2,55.2,55.2,-5.258,0.7111111111,0.5877251168,6.766,5.64,1.66,1.17,0.5902543894
904,VBiO3,V,Bi,0,not balanced,not balanced,0.72,0.9,orthorhombic,-1.819,0.233,0.4,13.85,0.451,5.724,5.773,8.382,90.0,90.0,90.0,-,0.6666666667,0.6505382386999999,6.74,7.289,1.63,2.02,0.6517679896
64,AsNaO3,As,Na,0,not balanced,not balanced,0.52,1.02,orthorhombic,-1.63,0.131,-,12.895,2.122,5.1160000000000005,5.131,9.824,90.0,90.0,90.0,-9.344,0.7555555556,0.5579281354,9.81,5.138999999999999,2.18,0.93,0.5610103388000001
139,CdZrO3,Cd,Zr,0,2,4,1.31,0.72,orthorhombic,-2.635,0.039,0,12.755999999999998,2.77,5.534,5.726,8.05,90.0,90.0,90.0,1.752,0.5333333333,0.9086492937,8.993,6.84,1.69,1.33,0.9038959326
899,UVO3,U,V,0,3,3,1.03,0.64,orthorhombic,-3.176,0.02,1,12.447000000000001,1.685,5.392,5.949,7.76,90.0,90.0,90.0,4.461,0.47407407409999996,0.8456854971,6.05,6.74,1.38,1.63,0.8422889599
239,DyScO3,Dy,Sc,1,3,3,1.08,0.75,orthorhombic,-3.803,0.026000000000000002,0,12.208,4.69,5.422000000000001,5.711,7.886,90.0,90.0,90.0,5.05,0.5555555556,0.8182235610999999,5.94,6.54,1.22,1.36,0.8156394498999999
53,AlPrO3,Al,Pr,0,3,3,0.54,0.99,orthorhombic,-3.213,0.28600000000000003,0,13.347000000000001,2.935,5.529,5.537000000000001,8.72,90.0,90.0,90.0,-7.082,0.7333333333,0.5711247079,5.986000000000001,5.46,1.61,1.13,0.5739695211
582,NpLuO3,Np,Lu,0,element not in BV,element not in BV,0.98,0.86,orthorhombic,-3.7489999999999997,-0.027999999999999997,0.8,14.135,2.807,5.72,6.006,8.229,90.0,90.0,90.0,-,0.637037037,0.7455017195,6.19,5.4259,1.36,1.27,0.7446522740000001
863,TmBaO3,Tm,Ba,0,not balanced,not balanced,1.05,1.35,orthorhombic,-2.861,0.282,0.201,18.032,0.645,6.428999999999999,6.76,8.299,90.0,90.0,90.0,-8.566,1.0,0.6285393611,6.184,5.212000000000001,1.25,0.89,0.6299678596
312,GdMnO3,Gd,Mn,1,3,3,1.11,0.65,orthorhombic,-2.944,0.002,0.8,11.491,0.23,5.319,5.74,7.527,90.0,90.0,90.0,3.6,0.4814814815,0.8697413409,6.15,7.435,1.2,1.55,0.8657746443000001
128,CdGeO3,Cd,Ge,1,2,4,1.31,0.53,orthorhombic,-1.588,0.114,-,10.494000000000002,1.2009999999999998,5.2589999999999995,5.32,7.501,90.0,90.0,90.0,3.067,0.39259259259999996,1.0004808713,8.993,7.899,1.69,2.01,0.9928805062
845,TlGdO3,Tl,Gd,0,not balanced,not balanced,1.7,0.94,orthorhombic,-2.261,0.10400000000000001,0.001,14.658,0.8959999999999999,5.8260000000000005,5.9079999999999995,8.517000000000001,90.0,90.0,90.0,-3.09,0.6962962963,0.9417797740999999,6.108,6.15,1.62,1.2,0.9367653939
429,LaTlO3,La,Tl,0,3,3,1.36,0.89,orthorhombic,-2.287,0.038,0,15.167,1.3019999999999998,5.817,6.164,8.46,90.0,90.0,90.0,1.289,0.6592592593,0.8554729362000001,5.58,6.108,1.1,1.62,0.8522335005
326,GeHfO3,Ge,Hf,0,2,4,0.73,0.71,orthorhombic,-2.66,0.218,0,12.262,2.728,5.421,5.756,7.86,90.0,90.0,90.0,4.589,0.5259259259000001,0.7139718956000001,7.899,6.65,2.01,1.3,0.7138092151000001
466,LuScO3,Lu,Sc,0,3,3,1.03,0.75,cubic,-3.1889999999999996,0.696,0,12.449000000000002,2.638,3.963,3.963,3.963,90.0,90.0,90.0,4.801,0.5555555556,0.8013876853,5.4259,6.54,1.27,1.36,0.7991951062
721,ScGdO3,Sc,Gd,0,not balanced,not balanced,0.87,0.94,cubic,-2.339,1.4609999999999999,0,15.967,0.44799999999999995,4.306,4.306,4.306,90.0,90.0,90.0,-2.876,0.6962962963,0.6854921634000001,6.54,6.15,1.36,1.2,0.6859540142
427,LaScO3,La,Sc,1,3,3,1.36,0.75,orthorhombic,-3.7889999999999997,-0.028999999999999998,0,13.241,4.099,5.653,5.7989999999999995,8.078,90.0,90.0,90.0,5.579,0.5555555556,0.9125044652,5.58,6.54,1.1,1.36,0.9077277748999999
185,CrCaO3,Cr,Ca,0,not balanced,not balanced,0.57,1.0,orthorhombic,-2.452,0.213,0.4,12.774000000000001,1.198,5.466,5.481,8.527000000000001,90.0,90.0,90.0,-,0.7407407407,0.5777212851,6.766,6.1129999999999995,1.66,1.0,0.5804168162
476,MgLaO3,Mg,La,0,not balanced,not balanced,0.89,1.03,orthorhombic,-2.815,0.22899999999999998,0.2,14.3,0.655,5.56,5.995,8.58,90.0,90.0,90.0,-3.153,0.762962963,0.6655122646,7.646,5.58,1.31,1.1,0.6663681189
162,CeTmO3,Ce,Tm,1,3,3,1.34,0.88,orthorhombic,-3.7110000000000003,0.015,0,14.65,5.086,5.797999999999999,6.03,8.381,90.0,90.0,90.0,4.953,0.6518518519,0.8529673728,5.54,6.184,1.12,1.25,0.8497686756
308,GdHoO3,Gd,Ho,0,3,3,1.11,0.9,cubic,-3.015,0.818,0,15.277000000000001,1.6480000000000001,4.243,4.243,4.243,90.0,90.0,90.0,1.857,0.6666666667,0.7731034140999999,6.15,6.018,1.2,1.23,0.7716687047
93,BiAgO3,Bi,Ag,0,3,3,1.38,0.75,orthorhombic,-0.816,0.065,-,13.495,0.35700000000000004,5.78,6.05,7.718999999999999,90.0,90.0,90.0,-0.274,0.5555555556,0.9192388155,7.289,7.5760000000000005,2.02,1.93,0.9143055123999999
315,GdRhO3,Gd,Rh,1,3,3,1.11,0.67,orthorhombic,-2.408,-0.044000000000000004,0,11.717,0.966,5.291,5.787000000000001,7.654,90.0,90.0,90.0,0.071,0.49629629630000005,0.8611300405,6.15,7.46,1.2,2.28,0.8574096719
270,FeGdO3,Fe,Gd,0,3,3,0.78,0.94,orthorhombic,-2.5869999999999997,0.179,1,12.88,1.6380000000000001,5.532,5.565,8.369,90.0,90.0,90.0,-5.837,0.6962962963,0.6577019406,7.87,6.15,1.83,1.2,0.6587575996
737,SiCaO3,Si,Ca,0,not balanced,not balanced,0.4,1.0,orthorhombic,-3.108,0.184,-,12.267999999999999,4.126,4.921,5.143,9.693999999999999,90.0,90.0,90.0,-9.925,0.7407407407,0.5265688796,8.151,6.1129999999999995,1.9,1.0,0.5303300859000001
403,KTaO3,K,Ta,1,1,5,1.64,0.64,rhombohedral,-2.92,-0.38,0,12.838,2.324,5.662999999999999,5.662999999999999,5.662999999999999,60.0,60.0,60.0,6.626,0.47407407409999996,1.062436822,4.341,7.89,0.82,1.5,1.0537277524
937,YGdO3,Y,Gd,0,3,3,1.08,0.94,cubic,-2.798,1.002,0,16.090999999999998,1.371,4.317,4.317,4.317,90.0,90.0,90.0,0.203,0.6962962963,0.7503360167,6.38,6.15,1.22,1.2,0.7494123151000001
866,TmCuO3,Tm,Cu,0,3,3,1.05,0.54,orthorhombic,-2.306,0.004,0,10.66,0.268,5.152,5.8229999999999995,7.106,90.0,90.0,90.0,0.436,0.4,0.8979133729000001,6.184,7.726,1.25,1.9,0.8929956773000001
586,NpNiO3,Np,Ni,0,element not in BV,element not in BV,0.98,0.59,orthorhombic,-2.622,0.10099999999999999,1,11.519,2.162,5.277,5.782,7.551,90.0,90.0,90.0,3.251,0.437037037,0.8492571135,6.19,7.635,1.36,1.91,0.8456854971
579,NpInO3,Np,In,0,element not in BV,element not in BV,0.98,0.8,orthorhombic,-2.69,0.151,0.8,14.003,1.104,5.697,6.007000000000001,8.184,90.0,90.0,90.0,-,0.5925925926,0.7663064187,6.19,5.7860000000000005,1.36,1.78,0.7649609723999999
783,SrNpO3,Sr,Np,0,element not in BV,element not in BV,1.44,0.86,orthorhombic,-3.418,-0.013999999999999999,0.6,16.005,2.6,6.007999999999999,6.182,8.619,90.0,90.0,90.0,-,0.637037037,0.8926823165000001,5.695,6.19,0.95,1.36,0.8885766631
196,CrSrO3,Cr,Sr,0,not balanced,not balanced,0.57,1.18,orthorhombic,-2.443,0.159,0.4,14.672,1.367,5.502999999999999,5.603,9.517000000000001,90.0,90.0,90.0,-14.856,0.8740740740999999,0.5366185849,6.766,5.695,1.66,0.95,0.5399226197
321,GdYO3,Gd,Y,0,3,3,1.11,0.9,cubic,-2.94,0.86,0,15.525,1.911,4.266,4.266,4.266,90.0,90.0,90.0,1.453,0.6666666667,0.7731034140999999,6.15,6.38,1.2,1.22,0.7716687047
310,GdLaO3,Gd,La,0,3,3,1.11,1.03,cubic,-2.4930000000000003,1.2590000000000001,0,18.403,0.402,4.515,4.515,4.515,90.0,90.0,90.0,-2.66,0.762962963,0.7308750764,6.15,5.58,1.2,1.1,0.7303860168
809,TcCaO3,Tc,Ca,0,element not in BV,element not in BV,0.6,1.0,rhombohedral,-2.037,0.285,0.6,14.505999999999998,0.5379999999999999,6.06,6.06,6.06,56.6,56.6,56.6,-,0.7407407407,0.5867481801,7.28,6.1129999999999995,1.9,1.0,0.589255651
658,PuCrO3,Pu,Cr,1,element not in BV,element not in BV,0.96,0.58,orthorhombic,-3.12,-0.063,1.6,11.682,1.57,5.462999999999999,5.529,7.735,90.0,90.0,90.0,-,0.4296296296,0.8463298779999999,6.06,6.766,1.28,1.66,0.8428141431999999
467,LuSrO3,Lu,Sr,0,not balanced,not balanced,1.03,1.18,orthorhombic,-2.972,0.24600000000000002,0.2,15.952,0.922,6.1739999999999995,6.355,8.132,90.0,90.0,90.0,-5.38,0.8740740740999999,0.6651834542,5.4259,5.695,1.27,0.95,0.6659959218
879,TmTlO3,Tm,Tl,0,not balanced,not balanced,1.05,1.2,orthorhombic,-2.301,0.133,0,13.812999999999999,0.887,5.48,5.825,8.656,90.0,90.0,90.0,0.355,0.8888888889,0.6655122646,6.184,6.108,1.25,1.62,0.6663121592
933,YDyO3,Y,Dy,0,3,3,1.08,0.91,cubic,-2.911,0.9179999999999999,0,15.491,1.445,4.263,4.263,4.263,90.0,90.0,90.0,1.026,0.6740740741,0.7602962293000001,6.38,5.94,1.22,1.22,0.7591449426000001