,index,Chemical formula,A,B,In literature,Valence A,Valence B,Radius A [ang],Radius B [ang],Lowest distortion,Formation energy [eV/atom],Stability [eV/atom],Magnetic moment [mu_B],Volume per atom [A^3/atom],Band gap [eV],a [ang],b [ang],c [ang],alpha [deg],beta [deg],gamma [deg],Vacancy energy [eV/O atom],Octahedral Factor,Tolerance Factor,A Ionization Energy,B Ionization Energy,A Electronegativity,B Electronegativity,Goldschmidt Tolerance Factor
905,4323,TbDyO3,Tb,Dy,0,4,2,0.88,1.07,cubic,-2.802,0.903,0,15.489,1.746,4.263,4.263,4.263,90,90,90,1.148,0.7925925926,0.6515901331,5.86,5.94,1.4698021411895752,1.22,0.6515901331
906,2052,KBiO3,K,Bi,1,1,5,1.64,0.76,orthorhombic,-1.352,0.098,,14.845,0.273,5.912,5.97,8.412,90,90,90,0.393,0.5629629629999999,1.0020138748,4.341,7.289,0.82,2.02,1.0020138748
907,2867,NpGaO3,Np,Ga,0,element not in BV,element not in BV,0.98,0.62,orthorhombic,-2.862,0.065,0.8,11.752,2.042,5.468,5.536,7.765,90,90,90,4.907,0.4592592593,0.836324264,6.19,5.999,1.36,1.81,0.836324264
908,64,AcTlO3,Ac,Tl,0,element not in BV,element not in BV,1.12,1.2,orthorhombic,-2.27,-0.012,0,15.973,1.041,5.937,6.296,8.547,90,90,90,1.876,0.8888888889,0.6849230390000001,5.17,6.108,1.1,1.62,0.6849230390000001
909,1173,DyBO3,Dy,B,0,not balanced,not balanced,1.08,0.27,cubic,-2.526,0.836,0,8.244,3.002,3.454,3.454,3.454,90,90,90,5.458,0.2,1.0606601718000002,5.94,8.298,1.22,2.04,1.0606601718000002
910,1558,GdHoO3,Gd,Ho,0,3,3,1.11,0.9,cubic,-3.015,0.818,0,15.277,1.648,4.243,4.243,4.243,90,90,90,1.857,0.6666666667,0.7731034140999999,6.15,6.018,1.2,1.23,0.7731034140999999
911,2456,MnPuO3,Mn,Pu,0,element not in BV,element not in BV,0.96,0.83,orthorhombic,-2.802,0.086,1.8,13.402,1.643,5.625,5.739,8.303,90,90,90,1.11,0.6148148148,0.7492736993000001,7.435,6.06,1.55,1.28,0.7492736993000001
912,2328,LuTmO3,Lu,Tm,0,3,3,1.03,0.88,cubic,-2.919,1.027,0,14.578,1.025,4.177,4.177,4.177,90,90,90,0.782,0.6518518519,0.7546700176000001,5.4259,6.184,1.27,1.25,0.7546700176000001
913,1501,GaPaO3,Ga,Pa,0,element not in BV,element not in BV,0.62,0.91,orthorhombic,-2.435,0.125,0,15.708,2.72,6.024,6.07,8.592,90,90,90,5.587,0.6740740741,0.6163718402,5.999,5.89,1.81,1.5,0.6163718402
914,4234,TaAcO3,Ta,Ac,0,element not in BV,element not in BV,0.74,1.12,rhombohedral,-2.889,0.216,0,17.361,1.223,6.155,6.155,6.155,62.4,62.4,62.4,-6.053,0.8296296296,0.5983211225,7.89,5.17,1.5,1.1,0.5983211225