,index,Chemical formula,A,B,In literature,Valence A,Valence B,Radius A [ang],Radius B [ang],Lowest distortion,Formation energy [eV/atom],Stability [eV/atom],Magnetic moment [mu_B],Volume per atom [A^3/atom],Band gap [eV],a [ang],b [ang],c [ang],alpha [deg],beta [deg],gamma [deg],Vacancy energy [eV/O atom],Octahedral Factor,Tolerance Factor,A Ionization Energy,B Ionization Energy,A Electronegativity,B Electronegativity,Goldschmidt Tolerance Factor
402,2380,MgPmO3,Mg,Pm,0,element not in BV,element not in BV,0.89,0.97,orthorhombic,-2.791,0.235,0.201,13.692,0.702,5.61,5.817,8.392,90,90,90,-3.15,0.7185185184999999,0.6827237887000001,7.646,5.553999999999999,1.31,1.4031774997711182,0.6827237887000001
403,586,BiAlO3,Bi,Al,1,3,3,1.38,0.54,orthorhombic,-2.319,0.069,,10.885,2.652,5.335,5.391,7.569,90,90,90,4.691,0.4,1.0213764617,7.289,5.986000000000001,2.02,1.61,1.0213764617
404,587,BiAsO3,Bi,As,0,3,3,1.38,0.58,orthorhombic,-1.232,0.228,,13.453,0.33,5.546,6.004,8.081,90,90,90,1.801,0.4296296296,1.0002080376,7.289,9.81,2.02,2.18,1.0002080376
405,2102,KTaO3,K,Ta,1,1,5,1.64,0.64,rhombohedral,-2.92,-0.38,0,12.838,2.324,5.663,5.663,5.663,60,60,60,6.626,0.47407407409999996,1.062436822,4.341,7.89,0.82,1.5,1.062436822
406,4809,TmTlO3,Tm,Tl,0,not balanced,not balanced,1.05,1.2,orthorhombic,-2.301,0.133,0,13.813,0.887,5.48,5.825,8.656,90,90,90,0.355,0.8888888889,0.6655122646,6.184,6.108,1.25,1.62,0.6655122646
407,2354,MgEuO3,Mg,Eu,0,not balanced,not balanced,0.89,1.06,orthorhombic,-2.413,0.141,0,12.876,2.525,5.899,6.062,7.202,90,90,90,-4.319,0.7851851851999999,0.6572278796,7.646,5.67,1.31,1.4031774997711182,0.6572278796
408,358,AuUO3,Au,U,0,element not in BV,element not in BV,0.93,0.85,orthorhombic,-2.267,0.237,0.2,14.996,1.753,5.813,6.082,8.484,90,90,90,2.881,0.6296296296,0.732819755,9.225,6.05,2.54,1.38,0.732819755
409,1577,GdPmO3,Gd,Pm,0,element not in BV,element not in BV,1.11,0.97,cubic,-2.641,1.093,0,17.185,1.137,4.413,4.413,4.413,90,90,90,-0.871,0.7185185184999999,0.749777018,6.15,5.553999999999999,1.2,1.4031774997711182,0.749777018
410,3463,PuMgO3,Pu,Mg,0,element not in BV,element not in BV,0.96,0.72,orthorhombic,-3.148,-0.013,0.8,11.539,1.607,5.332,5.673,7.629,90,90,90,-0.714,0.5333333333,0.7890901761,6.06,7.646,1.28,1.31,0.7890901761
411,3226,PmCsO3,Pm,Cs,0,element not in BV,element not in BV,1.14,1.67,orthorhombic,-1.872,0.53,0,19.32,0.504,5.493,6.203,11.34,90,90,90,,1.2370370370000001,0.5830118825,5.553999999999999,3.8939999999999997,1.4698021411895752,0.79,0.5830118825
412,4798,TmScO3,Tm,Sc,0,3,3,1.05,0.75,cubic,-3.241,0.629,0,12.507,2.748,3.969,3.969,3.969,90,90,90,4.911,0.5555555556,0.8081220356000001,6.184,6.54,1.25,1.36,0.8081220356000001
413,4082,SmVO3,Sm,V,1,2,4,1.32,0.58,orthorhombic,-3.223,-0.057,0.4,11.864,1.105,5.398,5.695,7.718,90,90,90,4.238,0.4296296296,0.9782254434000001,5.64,6.74,1.17,1.63,0.9782254434000001
414,69,AcYO3,Ac,Y,0,element not in BV,element not in BV,1.12,0.9,orthorhombic,-3.693,0.001,0,15.939,4.608,5.993,6.183,8.603,90,90,90,5.419,0.6666666667,0.7762461109000001,5.17,6.38,1.1,1.22,0.7762461109000001
415,1431,FePmO3,Fe,Pm,0,element not in BV,element not in BV,0.85,0.97,orthorhombic,-2.532,0.195,1,13.471,1.787,5.614,5.62,8.539,90,90,90,-6.993,0.7185185184999999,0.6705322925,7.87,5.553999999999999,1.83,1.4031774997711182,0.6705322925
416,1508,GaRbO3,Ga,Rb,0,not balanced,not balanced,0.62,1.52,orthorhombic,-1.371,0.254,,16.763,1.967,5.779,7.022,8.261,90,90,90,-13.296,1.1259259259,0.4853659787,5.999,4.177,1.81,0.82,0.4853659787
417,1258,Er2O3,Er,Er,0,3,3,1.06,0.89,cubic,-2.947,0.949,0,14.923,1.559,4.21,4.21,4.21,90,90,90,1.088,0.6592592593,0.7607711351,6.101,6.101,1.24,1.24,0.7607711351
418,853,CeRhO3,Ce,Rh,0,3,3,1.34,0.67,orthorhombic,-2.288,-0.061,0,12.631,0.671,5.469,5.852,7.893,90,90,90,1.093,0.49629629630000005,0.9416421987000001,5.54,7.46,1.12,2.28,0.9416421987000001
419,632,BiRbO3,Bi,Rb,0,not balanced,not balanced,1.38,1.52,orthorhombic,-1.205,0.218,,18.866,0.971,5.115,5.768,12.79,90,90,90,-9.484,1.1259259259,0.6726137675,7.289,4.177,2.02,0.82,0.6726137675
420,2770,NdYO3,Nd,Y,0,3,3,1.27,0.9,cubic,-3.065,0.649,0,15.735,1.82,4.285,4.285,4.285,90,90,90,4.343,0.6666666667,0.823386563,5.53,6.38,1.14,1.22,0.823386563
421,3685,RhNaO3,Rh,Na,0,not balanced,not balanced,0.61,1.02,rhombohedral,-0.917,0.316,0.4,13.693,0.246,5.797,5.797,5.797,59.7,59.7,59.7,-10.47,0.7555555556,0.5847802916,7.46,5.138999999999999,2.28,0.93,0.5847802916
422,0,Ac2O3,Ac,Ac,0,element not in BV,element not in BV,1.12,1.12,cubic,-2.732,0.848,0,20.836,0.332,4.705,4.705,4.705,90,90,90,3.15,0.8296296296,0.7071067812,5.17,5.17,1.1,1.1,0.7071067812
423,4409,TcLaO3,Tc,La,0,element not in BV,element not in BV,0.6,1.03,rhombohedral,-2.237,0.384,0.4,15.148,0.323,5.756,5.756,5.756,65.7,65.7,65.7,-6.403,0.762962963,0.5793521947,7.28,5.58,1.9,1.1,0.5793521947
424,1862,HoNdO3,Ho,Nd,0,not balanced,not balanced,1.12,0.98,cubic,-2.456,1.291,0,17.601,0.331,4.448,4.448,4.448,90,90,90,-2.305,0.7259259259,0.7495938839,6.018,5.53,1.23,1.14,0.7495938839
425,4901,VCdO3,V,Cd,0,not balanced,not balanced,0.72,0.95,orthorhombic,-1.843,0.19,0.2,12.529,0.206,5.335,5.416,8.671,90,90,90,-7.137,0.7037037037,0.6363961031,6.74,8.993,1.63,1.69,0.6363961031
426,2369,MgMnO3,Mg,Mn,0,2,4,0.89,0.53,orthorhombic,-2.219,0.077,0.6,9.249,0.705,4.951,5.183,7.208,90,90,90,0.004,0.39259259259999996,0.8425102073999999,7.646,7.435,1.31,1.55,0.8425102073999999
427,1205,DyNdO3,Dy,Nd,0,not balanced,not balanced,1.08,0.98,cubic,-2.487,1.248,0,17.598,0.497,4.448,4.448,4.448,90,90,90,-1.117,0.7259259259,0.7374547117,5.94,5.53,1.22,1.14,0.7374547117
428,939,CoTiO3,Co,Ti,0,2,4,0.9,0.61,cubic,-1.963,0.525,0.6,11.159,0.677,3.821,3.821,3.821,90,90,90,1.218,0.4518518519,0.8117297232999999,7.86,6.82,1.88,1.54,0.8117297232999999
429,3354,PrYO3,Pr,Y,0,3,3,1.18,0.9,cubic,-3.1,0.593,0,15.797,2.003,4.291,4.291,4.291,90,90,90,4.454,0.6666666667,0.7951022917,5.46,6.38,1.13,1.22,0.7951022917
430,2594,NaNpO3,Na,Np,0,element not in BV,element not in BV,1.39,0.86,orthorhombic,-2.851,-0.091,0.4,13.777,1.898,5.655,5.937,8.208,90,90,90,2.658,0.637037037,0.8766844254999999,5.138999999999999,6.19,0.93,1.36,0.8766844254999999
431,4273,TaNpO3,Ta,Np,0,element not in BV,element not in BV,0.74,0.86,rhombohedral,-2.79,0.313,0.8,15.29,0.55,5.749,5.749,5.749,66.4,66.4,66.4,-0.811,0.637037037,0.6687118428000001,7.89,6.19,1.5,1.36,0.6687118428000001
432,4978,WCsO3,W,Cs,0,not balanced,not balanced,0.63,1.67,rhombohedral,-1.921,0.284,0.2,24.231,1.548,6.994,6.994,6.994,60.1,60.1,60.1,,1.2370370370000001,0.4635998102,7.98,3.8939999999999997,2.36,0.79,0.4635998102
433,1435,FeRbO3,Fe,Rb,0,not balanced,not balanced,0.85,1.52,orthorhombic,-1.304,0.106,0.6,17.168,0.505,5.491,6.01,10.406,90,90,90,,1.1259259259,0.5420330727,7.87,4.177,1.83,0.82,0.5420330727
434,3625,ReRbO3,Re,Rb,0,5,1,0.58,1.52,rhombohedral,-1.739,0.183,0,20.938,1.753,6.531,6.531,6.531,62.8,62.8,62.8,,1.1259259259,0.4755108319,7.88,4.177,1.9,0.82,0.4755108319
435,1386,EuZrO3,Eu,Zr,0,2,4,1.48,0.72,orthorhombic,-3.691,0,0,13.299,4.134,5.661,5.809,8.087,90,90,90,6.201,0.5333333333,0.9667208651000001,5.67,6.84,1.4698021411895752,1.33,0.9667208651000001
436,1507,GaPuO3,Ga,Pu,0,element not in BV,element not in BV,0.62,0.83,orthorhombic,-2.799,0.096,1,15.101,1.347,5.363,6.069,9.28,90,90,90,0.763,0.6148148148,0.6389909903000001,5.999,6.06,1.81,1.28,0.6389909903000001
437,4955,VTlO3,V,Tl,0,not balanced,not balanced,0.72,1.2,orthorhombic,-1.566,0.404,0.4,12.645,0.209,5.575,5.589,8.116,90,90,90,-5.31,0.8888888889,0.5740043283,6.74,6.108,1.63,1.62,0.5740043283
438,4741,TlYO3,Tl,Y,0,not balanced,not balanced,1.7,0.9,orthorhombic,-2.278,0.095,0,14.368,1.095,5.787,5.866,8.465,90,90,90,-3.435,0.6666666667,0.9585225256000001,6.108,6.38,1.62,1.22,0.9585225256000001
439,4043,SmKO3,Sm,K,0,not balanced,not balanced,1.24,1.38,orthorhombic,-2.137,0.291,0,17.217,1.596,6.325,6.401,8.505,90,90,90,-3.394,1.0222222222,0.670844895,5.64,4.341,1.17,0.82,0.670844895
440,2658,NbLiO3,Nb,Li,0,5,1,0.74,0.76,orthorhombic,-2.634,0.103,0,9.588,2.594,4.772,5.139,7.819,90,90,90,-2.884,0.5629629629999999,0.7004043472,6.88,5.392,1.6,0.98,0.7004043472
441,2780,NiBaO3,Ni,Ba,0,not balanced,not balanced,0.59,1.35,orthorhombic,-1.395,0.373,0.8,18.39,0.763,5.748,6.519,9.815,90,90,90,,1.0,0.5080693169,7.635,5.212000000000001,1.91,0.89,0.5080693169
442,3063,PaYbO3,Pa,Yb,0,element not in BV,element not in BV,0.95,0.95,cubic,-0.951,2.356,0.2,25.247,0.341,5.016,5.016,5.016,90,90,90,-12.498,0.7037037037,0.7071067812,5.89,6.254,1.5,1.4031774997711182,0.7071067812
443,3133,PbVO3,Pb,V,0,2,4,1.49,0.58,tetragonal,-2.05,0.033,0.2,13.155,1.006,3.874,3.874,4.383,90,90,90,3.148,0.4296296296,1.0405094604,7.416,6.74,2.33,1.63,1.0405094604
444,3350,PrTmO3,Pr,Tm,0,3,3,1.18,0.88,orthorhombic,-3.729,0.025,0,14.447,5.007,5.763,6.005,8.349,90,90,90,4.856,0.6518518519,0.802233254,5.46,6.184,1.13,1.25,0.802233254
445,3113,PbPuO3,Pb,Pu,0,element not in BV,element not in BV,1.49,0.83,orthorhombic,-2.54,-0.055,0.8,15.812,1.37,5.977,6.161,8.586,90,90,90,,0.6148148148,0.9211849809999999,7.416,6.06,2.33,1.28,0.9211849809999999
446,3438,PuBeO3,Pu,Be,0,element not in BV,element not in BV,0.96,0.45,orthorhombic,-2.941,0.202,0.8,9.218,1.431,5.047,5.068,7.207,90,90,90,1.85,0.3333333333,0.9074537025,6.06,9.322000000000001,1.28,1.57,0.9074537025
447,2819,NiPrO3,Ni,Pr,0,not balanced,not balanced,0.59,0.92,orthorhombic,-2.037,0.275,0.6,13.738,0.518,5.568,5.843,8.444,90,90,90,,0.6814814815000001,0.6043115222,7.635,5.46,1.91,1.13,0.6043115222
448,4079,SmTlO3,Sm,Tl,0,not balanced,not balanced,1.24,1.2,orthorhombic,-2.247,0.072,0,14.526,1.257,5.684,6.043,8.458,90,90,90,0.884,0.8888888889,0.7181986523,5.64,6.108,1.17,1.62,0.7181986523
449,4771,TmInO3,Tm,In,0,not balanced,not balanced,1.05,0.8,cubic,-2.065,0.823,0,13.593,1.289,4.081,4.081,4.081,90,90,90,2.513,0.5925925926,0.7893284999,6.184,5.7860000000000005,1.25,1.78,0.7893284999
450,2418,MnCaO3,Mn,Ca,0,not balanced,not balanced,0.96,1.0,rhombohedral,-2.18,0.263,0.6,13.723,1.528,6.016,6.016,6.016,55.3,55.3,55.3,,0.7407407407,0.6950709211,7.435,6.1129999999999995,1.55,1,0.6950709211
451,1526,GaUO3,Ga,U,0,1,5,0.62,0.76,tetragonal,-2.623,0.369,0.2,16.167,2.492,4.308,4.332,4.332,90,90,90,4.188,0.5629629629999999,0.6601897436,5.999,6.05,1.81,1.38,0.6601897436
452,4897,VBaO3,V,Ba,0,not balanced,not balanced,0.72,1.35,orthorhombic,-2.704,0.162,0.2,16.597,1.269,5.416,5.953,10.295,90,90,90,-13.06,1.0,0.5421151989,6.74,5.212000000000001,1.63,0.89,0.5421151989
453,4832,UCsO3,U,Cs,0,not balanced,not balanced,1.17,1.67,tetragonal,-2.343,0.712,0.2,18.762,1.048,3.608,3.608,7.208,90,90,90,,1.2370370370000001,0.590036122,6.05,3.8939999999999997,1.38,0.79,0.590036122
454,1237,DyYO3,Dy,Y,0,not balanced,not balanced,1.08,0.9,cubic,-2.881,0.948,-0.001,15.453,1.803,4.259,4.259,4.259,90,90,90,0.899,0.6666666667,0.7636753237,5.94,6.38,1.22,1.22,0.7636753237
455,5101,YTlO3,Y,Tl,0,3,3,1.08,0.89,orthorhombic,-2.265,0.108,0,14.133,1.097,5.576,5.93,8.549,90,90,90,0.61,0.6592592593,0.7670845884999999,6.38,6.108,1.22,1.62,0.7670845884999999
456,2198,LiBiO3,Li,Bi,0,1,5,0.92,0.76,orthorhombic,-1.445,0.037,,11.688,0.781,5.414,5.501,7.849,90,90,90,0.067,0.5629629629999999,0.7607262526999999,5.392,7.289,0.98,2.02,0.7607262526999999
457,1116,CuGdO3,Cu,Gd,0,not balanced,not balanced,0.68,0.94,rhombohedral,-2.036,0.271,0.4,13.667,0.342,6.05,6.05,6.05,54.5,54.5,54.5,-4.248,0.6962962963,0.6268239152,7.726,6.15,1.9,1.2,0.6268239152
458,847,CePmO3,Ce,Pm,0,element not in BV,element not in BV,1.24,0.97,cubic,-2.861,0.738,0,17.506,1.226,4.44,4.44,4.44,90,90,90,3.726,0.7185185184999999,0.7893993806999999,5.54,5.553999999999999,1.12,1.4031774997711182,0.7893993806999999
459,823,CeGaO3,Ce,Ga,1,3,3,1.34,0.62,orthorhombic,-2.853,-0.043,0,11.912,3.706,5.507,5.545,7.802,90,90,90,5.033,0.4592592593,0.9655417468999999,5.54,5.999,1.12,1.81,0.9655417468999999
460,4355,TbRbO3,Tb,Rb,0,not balanced,not balanced,1.1,1.52,orthorhombic,-2.002,0.346,0,18.423,1.287,6.215,6.263,9.466,90,90,90,-3.294,1.1259259259,0.60362774,5.86,4.177,1.4698021411895752,0.82,0.60362774
461,1387,FeAcO3,Fe,Ac,0,element not in BV,element not in BV,0.85,1.12,orthorhombic,-2.546,0.185,1,15.314,1.947,5.802,5.819,9.072,90,90,90,,0.8296296296,0.6298117079,7.87,5.17,1.83,1.1,0.6298117079
462,120,AgPuO3,Ag,Pu,0,element not in BV,element not in BV,1.28,0.83,orthorhombic,-2.016,0.046,0.6,14.166,0.997,5.67,5.99,8.343,90,90,90,0.281,0.6148148148,0.8530691901,7.5760000000000005,6.06,1.93,1.28,0.8530691901
463,2902,NpSmO3,Np,Sm,0,element not in BV,element not in BV,0.98,0.96,cubic,-2.881,0.71,0.8,17.065,1.156,4.402,4.402,4.402,90,90,90,,0.7111111111,0.7132289178,6.19,5.64,1.36,1.17,0.7132289178
464,4070,Sm2O3,Sm,Sm,0,not balanced,not balanced,1.24,0.96,cubic,-2.766,0.935,0,16.964,1.391,4.394,4.394,4.394,90,90,90,0.92,0.7111111111,0.7928166941,5.64,5.64,1.17,1.17,0.7928166941
465,924,CoRbO3,Co,Rb,0,not balanced,not balanced,0.9,1.52,rhombohedral,-1.077,0.141,0.4,18.998,1.641,6.419,6.419,6.419,60.7,60.7,60.7,,1.1259259259,0.5543520062,7.86,4.177,1.88,0.82,0.5543520062
466,4646,TiPuO3,Ti,Pu,0,element not in BV,element not in BV,0.74,0.83,orthorhombic,-3.178,0.26,1.2,13.728,0.39,5.652,5.906,8.224,90,90,90,,0.6148148148,0.6779142994,6.82,6.06,1.54,1.28,0.6779142994
467,3881,ScCoO3,Sc,Co,0,3,3,0.87,0.61,cubic,-1.94,0.591,0,9.546,0.849,3.627,3.627,3.627,90,90,90,1.089,0.4518518519,0.8009066603,6.54,7.86,1.36,1.88,0.8009066603
468,5152,YbPbO3,Yb,Pb,0,2,4,1.14,0.78,orthorhombic,-2.157,0.024,,13.428,1.206,5.613,5.889,8.125,90,90,90,1.197,0.5777777778000001,0.8266177865000001,6.254,7.416,1.4698021411895752,2.33,0.8266177865000001
469,4291,TaSrO3,Ta,Sr,0,not balanced,not balanced,0.74,1.18,orthorhombic,-2.801,0.365,0,15.651,0.31,5.577,6.314,8.889,90,90,90,-17.169,0.8740740740999999,0.5841316888,7.89,5.695,1.5,0.95,0.5841316888
470,3214,PmAlO3,Pm,Al,0,element not in BV,element not in BV,1.14,0.54,orthorhombic,-3.531,-0.06,0,10.553,4.732,5.301,5.311,7.496,90,90,90,6.434,0.4,0.9315851244,5.553999999999999,5.986000000000001,1.4698021411895752,1.61,0.9315851244
471,3965,SiHfO3,Si,Hf,0,not balanced,not balanced,0.4,0.71,cubic,-2.188,1.049,0,13.369,1.454,4.058,4.058,4.058,90,90,90,4.313,0.5259259259000001,0.6006975083,8.151,6.65,1.9,1.3,0.6006975083
472,2263,LuAcO3,Lu,Ac,0,element not in BV,element not in BV,1.03,1.12,orthorhombic,-3.553,0.24,0,16.779,3.32,6.073,6.194,8.921,90,90,90,0.046,0.8296296296,0.6813417568000001,5.4259,5.17,1.27,1.1,0.6813417568000001
473,1815,HgTiO3,Hg,Ti,0,2,4,1.14,0.61,rhombohedral,-2.038,0.09,0,11.512,1.52,5.508,5.508,5.508,58.9,58.9,58.9,1.847,0.4518518519,0.8983142271,10.437000000000001,6.82,2,1.54,0.8983142271
474,1553,GdGaO3,Gd,Ga,1,3,3,1.11,0.62,orthorhombic,-2.954,0.045,0,11.244,4.008,5.305,5.571,7.608,90,90,90,4.584,0.4592592593,0.8829861329,6.15,5.999,1.2,1.81,0.8829861329
475,4111,SnHfO3,Sn,Hf,0,2,4,0.81,0.71,orthorhombic,-2.783,0.135,0,13.857,2.398,5.797,5.821,8.214,90,90,90,5.278,0.5259259259000001,0.7414323531,7.343999999999999,6.65,1.96,1.3,0.7414323531
476,2408,MgZrO3,Mg,Zr,0,2,4,0.89,0.72,cubic,-2.676,0.682,0,13.812,0.843,4.103,4.103,4.103,90,90,90,2.605,0.5333333333,0.7651783526,7.646,6.84,1.31,1.33,0.7651783526
477,2182,LaTmO3,La,Tm,1,3,3,1.36,0.88,orthorhombic,-3.8,0.022,0,14.634,4.59,5.814,6.017,8.367,90,90,90,5.056,0.6518518519,0.8593091377,5.58,6.184,1.1,1.25,0.8593091377
478,2676,NbRbO3,Nb,Rb,0,not balanced,not balanced,0.77,1.52,orthorhombic,-2.538,0.136,0,19.351,3.347,6.027,6.083,10.556,90,90,90,-21.272,1.1259259259,0.5223227790999999,6.88,4.177,1.6,0.82,0.5223227790999999
479,4770,TmHoO3,Tm,Ho,0,not balanced,not balanced,1.05,0.9,cubic,-2.863,1.04,0,15.076,1.154,4.224,4.224,4.224,90,90,90,0.436,0.6666666667,0.7542472333,6.184,6.018,1.25,1.23,0.7542472333
480,29,AcLaO3,Ac,La,0,element not in BV,element not in BV,1.12,1.03,cubic,-2.983,0.663,0,18.986,1.423,4.562,4.562,4.562,90,90,90,4.187,0.762962963,0.7338461131999999,5.17,5.58,1.1,1.1,0.7338461131999999
481,1550,GdErO3,Gd,Er,0,3,3,1.11,0.89,cubic,-3.062,0.783,0,15.015,1.779,4.219,4.219,4.219,90,90,90,4.376,0.6592592593,0.7765547686,6.15,6.101,1.2,1.24,0.7765547686
482,3849,SbScO3,Sb,Sc,0,3,3,0.76,0.75,cubic,-2.084,0.61,0,13.031,0.834,4.024,4.024,4.024,90,90,90,0.35,0.5555555556,0.7104739563,8.641,6.54,2.05,1.36,0.7104739563
483,1898,InAcO3,In,Ac,0,element not in BV,element not in BV,0.92,1.12,orthorhombic,-2.553,0.195,0,16.666,1.489,6.073,6.095,9.005,90,90,90,-3.62,0.8296296296,0.6498511714,5.7860000000000005,5.17,1.78,1.1,0.6498511714
484,3495,PuTlO3,Pu,Tl,0,element not in BV,element not in BV,0.96,1.2,orthorhombic,-2.225,0.077,1,14.777,0.39,5.784,6.168,8.284,90,90,90,,0.8888888889,0.6405555547,6.06,6.108,1.28,1.62,0.6405555547
485,2878,NpLuO3,Np,Lu,0,element not in BV,element not in BV,0.98,0.86,orthorhombic,-3.749,-0.028,0.8,14.135,2.807,5.72,6.006,8.229,90,90,90,,0.637037037,0.7455017195,6.19,5.4259,1.36,1.27,0.7455017195
486,3231,PmFeO3,Pm,Fe,0,element not in BV,element not in BV,1.14,0.67,orthorhombic,-2.727,-0.063,1,11.787,1.119,5.405,5.639,7.735,90,90,90,3.7,0.49629629630000005,0.8716316262999999,5.553999999999999,7.87,1.4698021411895752,1.83,0.8716316262999999
487,3310,PrHoO3,Pr,Ho,0,3,3,1.18,0.9,cubic,-3.171,0.554,0,15.54,1.831,4.267,4.267,4.267,90,90,90,4.602,0.6666666667,0.7951022917,5.46,6.018,1.13,1.23,0.7951022917
488,2432,MnHfO3,Mn,Hf,0,2,4,0.96,0.71,orthorhombic,-3.093,0.026,1,11.554,3.348,5.331,5.551,7.809,90,90,90,3.919,0.5259259259000001,0.7929207109,7.435,6.65,1.55,1.3,0.7929207109
489,4709,TlNdO3,Tl,Nd,0,not balanced,not balanced,1.7,0.98,orthorhombic,-2.164,0.115,0,15.638,1.014,5.955,6.036,8.702,90,90,90,-3.035,0.7259259259,0.9256118809999999,6.108,5.53,1.62,1.14,0.9256118809999999
490,1353,EuNpO3,Eu,Np,0,element not in BV,element not in BV,1.48,0.86,orthorhombic,-3.586,-0.001,0.6,15.202,2.489,5.882,6.106,8.465,90,90,90,3.634,0.637037037,0.9054806293000001,5.67,6.19,1.4698021411895752,1.36,0.9054806293000001
491,1408,FeGdO3,Fe,Gd,0,3,3,0.78,0.94,orthorhombic,-2.587,0.179,1,12.88,1.638,5.532,5.565,8.369,90,90,90,-5.837,0.6962962963,0.6577019406,7.87,6.15,1.83,1.2,0.6577019406
492,5326,ZrYbO3,Zr,Yb,0,not balanced,not balanced,0.89,0.95,orthorhombic,-3.455,0.205,0,13.136,4.007,5.558,5.726,8.254,90,90,90,-6.177,0.7037037037,0.6886605173,6.84,6.254,1.33,1.4031774997711182,0.6886605173
493,2866,NpFeO3,Np,Fe,0,element not in BV,element not in BV,0.98,0.67,orthorhombic,-2.74,0.094,1.4,12.033,1.35,5.357,5.983,7.509,90,90,90,4.556,0.49629629630000005,0.8156231684,6.19,7.87,1.36,1.83,0.8156231684
494,2613,NaTaO3,Na,Ta,1,1,5,1.39,0.64,orthorhombic,-2.932,-0.092,0,11.773,2.851,5.466,5.534,7.784,90,90,90,6.194,0.47407407409999996,0.9736043118000001,5.138999999999999,7.89,0.93,1.5,0.9736043118000001
495,4200,SrNpO3,Sr,Np,0,element not in BV,element not in BV,1.44,0.86,orthorhombic,-3.418,-0.014,0.6,16.005,2.6,6.008,6.182,8.619,90,90,90,,0.637037037,0.8926823165000001,5.695,6.19,0.95,1.36,0.8926823165000001
496,1519,GaTbO3,Ga,Tb,0,not balanced,not balanced,0.62,0.84,rhombohedral,-2.708,0.139,0,13.53,3.176,5.972,5.972,5.972,55.6,55.6,55.6,-4.648,0.6222222222,0.6360732232999999,5.999,5.86,1.81,1.4031774997711182,0.6360732232999999
497,112,AgNpO3,Ag,Np,0,element not in BV,element not in BV,1.28,0.86,orthorhombic,-2.246,0.086,0.4,14.282,1.698,5.694,6.003,8.356,90,90,90,1.048,0.637037037,0.8414890654,7.5760000000000005,6.19,1.93,1.36,0.8414890654
498,2192,LiAlO3,Li,Al,0,not balanced,not balanced,0.92,0.54,orthorhombic,-2.188,0.18,,8.383,3.175,5.155,5.406,6.017,90,90,90,-1.731,0.4,0.8492763986,5.392,5.986000000000001,0.98,1.61,0.8492763986
499,254,AsNaO3,As,Na,0,not balanced,not balanced,0.52,1.02,orthorhombic,-1.63,0.131,,12.895,2.122,5.116,5.131,9.824,90,90,90,-9.344,0.7555555556,0.5579281354,9.81,5.138999999999999,2.18,0.93,0.5579281354
500,5182,YbZrO3,Yb,Zr,0,2,4,1.14,0.72,orthorhombic,-3.661,-0.078,0,12.652,4.217,5.525,5.756,7.958,90,90,90,5.935,0.5333333333,0.8505777223000001,6.254,6.84,1.4698021411895752,1.33,0.8505777223000001