,index,Chemical formula,A,B,In literature,Valence A,Valence B,Radius A [ang],Radius B [ang],Lowest distortion,Formation energy [eV/atom],Stability [eV/atom],Magnetic moment [mu_B],Volume per atom [A^3/atom],Band gap [eV],a [ang],b [ang],c [ang],alpha [deg],beta [deg],gamma [deg],Vacancy energy [eV/O atom],Octahedral Factor,Tolerance Factor,A Ionization Energy,B Ionization Energy,A Electronegativity,B Electronegativity,Goldschmidt Tolerance Factor
704,2229,LiNpO3,Li,Np,0,element not in BV,element not in BV,0.92,0.86,rhombohedral,-2.882,0.05,0.4,12.707,1.647,5.877,5.877,5.877,55.1,55.1,55.1,1.274,0.637037037,0.7263042504,5.392,6.19,0.98,1.36,0.7263042504
705,4946,VSmO3,V,Sm,0,not balanced,not balanced,0.72,0.96,orthorhombic,-2.955,0.268,0.4,13.425,1.638,5.655,5.74,8.271,90,90,90,-6.477,0.7111111111,0.6336411416,6.74,5.64,1.63,1.17,0.6336411416
706,1468,GaBiO3,Ga,Bi,0,1,5,0.62,0.76,orthorhombic,-1.645,0.153,,15.009,1.6,5.373,6.159,9.071,90,90,90,-1.408,0.5629629629999999,0.6601897436,5.999,7.289,1.81,2.02,0.6601897436
707,4810,Tm2O3,Tm,Tm,0,not balanced,not balanced,1.05,0.96,cubic,-2.976,0.956,0,14.604,1.456,4.18,4.18,4.18,90,90,90,1.36,0.7111111111,0.734656396,6.184,6.184,1.25,1.25,0.734656396
708,4690,TlEuO3,Tl,Eu,0,not balanced,not balanced,1.7,1.06,orthorhombic,-1.667,0.176,0.2,15.218,0.341,6.101,6.138,8.127,90,90,90,-3.699,0.7851851851999999,0.8948861754,6.108,5.67,1.62,1.4031774997711182,0.8948861754
709,2146,La2O3,La,La,0,3,3,1.36,1.03,cubic,-2.825,0.888,0,19.361,0.595,4.592,4.592,4.592,90,90,90,3.112,0.762962963,0.8051509987000001,5.58,5.58,1.1,1.1,0.8051509987000001
710,109,AgNbO3,Ag,Nb,1,1,5,1.28,0.64,rhombohedral,-2.009,0.043,0,12.263,1.269,5.611,5.611,5.611,59.2,59.2,59.2,4.672,0.47407407409999996,0.9345180073,7.5760000000000005,6.88,1.93,1.6,0.9345180073
711,4494,TePaO3,Te,Pa,0,element not in BV,element not in BV,0.77,0.91,orthorhombic,-2.03,0.219,0,17.509,0.335,5.795,6.075,9.946,90,90,90,2.508,0.6740740741,0.6633037062,9.009,5.89,2.1,1.5,0.6633037062
712,805,CeAlO3,Ce,Al,1,3,3,1.34,0.54,rhombohedral,-3.479,-0.086,0,10.924,3.795,5.36,5.36,5.36,60.1,60.1,60.1,6.49,0.4,1.0064112388,5.54,5.986000000000001,1.12,1.61,1.0064112388
713,3926,ScSrO3,Sc,Sr,0,not balanced,not balanced,0.87,1.18,orthorhombic,-2.92,0.22,0.2,15.246,0.827,5.918,6.204,8.305,90,90,90,-6.833,0.8740740740999999,0.6204652388,6.54,5.695,1.36,0.95,0.6204652388
714,1489,GaLaO3,Ga,La,0,not balanced,not balanced,0.62,1.03,rhombohedral,-2.807,0.128,0,15.84,3.337,6.404,6.404,6.404,53.7,53.7,53.7,-4.204,0.762962963,0.5852942685,5.999,5.58,1.81,1.1,0.5852942685
715,4282,TaRbO3,Ta,Rb,0,not balanced,not balanced,0.74,1.52,orthorhombic,-2.689,0.183,0,19.597,3.593,5.93,5.984,11.045,90,90,90,-14.916,1.1259259259,0.5149314191,7.89,4.177,1.5,0.82,0.5149314191
716,2201,LiCeO3,Li,Ce,0,not balanced,not balanced,0.92,0.94,orthorhombic,-2.294,0.148,0,12.915,2.519,5.819,6.018,7.376,90,90,90,-2.253,0.6962962963,0.7009311761,5.392,5.54,0.98,1.12,0.7009311761
717,3661,RhCeO3,Rh,Ce,0,3,3,0.67,1.01,orthorhombic,-1.895,0.393,0,14.211,0.48,5.604,5.941,8.537,90,90,90,-6.947,0.7481481481000001,0.6052354653,7.46,5.54,2.28,1.12,0.6052354653
718,3612,ReNaO3,Re,Na,0,5,1,0.58,1.02,rhombohedral,-1.642,0.297,0,14.518,0.856,5.93,5.93,5.93,59.3,59.3,59.3,-15.373,0.7555555556,0.5758295729,7.88,5.138999999999999,1.9,0.93,0.5758295729
719,484,BaPtO3,Ba,Pt,0,element not in BV,element not in BV,1.61,0.67,orthorhombic,-1.587,0.019,0,13.759,0.257,5.743,5.83,8.218,90,90,90,1.235,0.49629629630000005,1.0361564714,5.212000000000001,9.0,0.89,2.28,1.0361564714
720,1612,GeBaO3,Ge,Ba,0,not balanced,not balanced,0.63,1.35,orthorhombic,-2.394,0.131,,17.277,3.093,5.186,6.053,11.006,90,90,90,-7.41,1.0,0.5185449729,7.899,5.212000000000001,2.01,0.89,0.5185449729
721,5194,ZnCeO3,Zn,Ce,0,2,4,0.9,0.87,orthorhombic,-2.228,0.192,0.2,14.337,0.626,5.515,5.978,8.697,90,90,90,-4.988,0.6444444443999999,0.7166622782,9.394,5.54,1.65,1.12,0.7166622782
722,949,CrAcO3,Cr,Ac,0,element not in BV,element not in BV,0.57,1.12,rhombohedral,-2.79,0.348,0.6,16.754,1.802,6.388,6.388,6.388,56.1,56.1,56.1,-4.273,0.8296296296,0.5496538542,6.766,5.17,1.66,1.1,0.5496538542
723,4436,TcSnO3,Tc,Sn,0,element not in BV,element not in BV,0.6,0.69,cubic,-0.756,0.927,1,13.115,0.571,4.033,4.033,4.033,90,90,90,2.883,0.5111111111,0.6759108937999999,7.28,7.343999999999999,1.9,1.96,0.6759108937999999
724,5164,YbSiO3,Yb,Si,0,3,3,1.04,0.4,rhombohedral,-3.279,-0.032,,8.867,4.854,4.996,4.996,4.996,60.3,60.3,60.3,6.309,0.2962962963,0.9657058326000001,6.254,8.151,1.4698021411895752,1.9,0.9657058326000001
725,3281,PmYO3,Pm,Y,0,element not in BV,element not in BV,1.14,0.9,cubic,-3.032,0.71,0,15.67,1.881,4.279,4.279,4.279,90,90,90,4.266,0.6666666667,0.7825315045,5.553999999999999,6.38,1.4698021411895752,1.22,0.7825315045
726,2280,LuErO3,Lu,Er,0,3,3,1.03,0.89,cubic,-2.856,1.073,0,14.843,0.878,4.202,4.202,4.202,90,90,90,0.359,0.6592592593,0.751300955,5.4259,6.101,1.27,1.24,0.751300955
727,3241,PmLaO3,Pm,La,0,element not in BV,element not in BV,1.14,1.03,cubic,-2.599,1.096,0,18.49,0.539,4.522,4.522,4.522,90,90,90,2.257,0.762962963,0.739788187,5.553999999999999,5.58,1.4698021411895752,1.1,0.739788187
728,1688,HfCaO3,Hf,Ca,0,not balanced,not balanced,0.83,1.0,orthorhombic,-3.406,0.263,0,13.347,3.862,5.542,5.698,8.453,90,90,90,,0.7407407407,0.6559543757,6.65,6.1129999999999995,1.3,1,0.6559543757
729,1131,CuNbO3,Cu,Nb,0,1,5,0.77,0.64,rhombohedral,-2.121,0.066,0,11.121,0.787,5.59,5.59,5.59,55.7,55.7,55.7,4.362,0.47407407409999996,0.7532996865,7.726,6.88,1.9,1.6,0.7532996865
730,920,CoPmO3,Co,Pm,0,element not in BV,element not in BV,0.9,0.97,rhombohedral,-2.359,0.119,0.8,14.447,1.653,6.14,6.14,6.14,55,55,55,,0.7185185184999999,0.6857716628,7.86,5.553999999999999,1.88,1.4031774997711182,0.6857716628
731,2133,LaDyO3,La,Dy,0,3,3,1.36,0.91,cubic,-3.253,0.529,0,15.915,1.85,4.301,4.301,4.301,90,90,90,4.719,0.6740740741,0.8479023792,5.58,5.94,1.1,1.22,0.8479023792
732,3780,RuSrO3,Ru,Sr,0,not balanced,not balanced,0.62,1.18,rhombohedral,-1.794,0.23,0.4,16.948,0.598,6.36,6.36,6.36,57,57,57,-11.44,0.8740740740999999,0.5505930272,7.37,5.695,2.2,0.95,0.5505930272
733,1401,FeCsO3,Fe,Cs,0,not balanced,not balanced,0.85,1.67,rhombohedral,-1.184,0.269,0.6,22.234,1.9,6.833,6.833,6.833,59.4,59.4,59.4,,1.2370370370000001,0.5151109002,7.87,3.8939999999999997,1.83,0.79,0.5151109002
734,1158,CuTiO3,Cu,Ti,0,2,4,0.73,0.61,orthorhombic,-2.142,0.126,0.2,9.718,0.653,4.937,5.24,7.512,90,90,90,-0.66,0.4518518519,0.7503990331,7.726,6.82,1.9,1.54,0.7503990331
735,3695,RhPrO3,Rh,Pr,0,3,3,0.67,0.99,orthorhombic,-1.925,0.39,-0.001,13.917,0.344,5.542,5.911,8.498,90,90,90,-6.823,0.7333333333,0.6104084179,7.46,5.46,2.28,1.13,0.6104084179
736,501,BaTiO3,Ba,Ti,1,2,4,1.61,0.61,tetragonal,-3.288,-0.03,0,13.029,1.68,3.987,3.987,4.099,90,90,90,5.357,0.4518518519,1.0678755470999999,5.212000000000001,6.82,0.89,1.54,1.0678755470999999
737,1416,FeLaO3,Fe,La,0,3,3,0.78,1.03,orthorhombic,-2.577,0.178,1,14.207,1.742,5.688,5.694,8.774,90,90,90,-6.303,0.762962963,0.6328308588,7.87,5.58,1.83,1.1,0.6328308588
738,3860,SbTlO3,Sb,Tl,0,not balanced,not balanced,0.68,1.2,orthorhombic,-1.18,0.365,,14.757,0.869,5.751,6.242,8.222,90,90,90,-4.176,0.8888888889,0.5629124571999999,8.641,6.108,2.05,1.62,0.5629124571999999
739,1504,GaPmO3,Ga,Pm,0,element not in BV,element not in BV,0.62,0.97,rhombohedral,-2.776,0.136,0,14.693,3.372,6.202,6.202,6.202,54.5,54.5,54.5,-4.558,0.7185185184999999,0.6004311892,5.999,5.553999999999999,1.81,1.4031774997711182,0.6004311892
740,5050,YCrO3,Y,Cr,1,3,3,1.08,0.62,orthorhombic,-3.178,-0.033,0.6,11.195,2.6,5.281,5.578,7.6,90,90,90,4.248,0.4592592593,0.8722180093,6.38,6.766,1.22,1.66,0.8722180093
741,615,BiLuO3,Bi,Lu,0,3,3,1.38,0.86,orthorhombic,-2.686,0.032,0,14.19,2.947,5.682,6.059,8.243,90,90,90,0.295,0.637037037,0.8734848473000001,7.289,5.4259,2.02,1.27,0.8734848473000001
742,4538,ThCoO3,Th,Co,0,4,2,1.21,0.75,orthorhombic,-2.947,0.093,0.6,12.397,1.864,5.409,5.933,7.727,90,90,90,3.147,0.5555555556,0.8619968379999999,6.08,7.86,1.3,1.88,0.8619968379999999
743,5201,ZnEuO3,Zn,Eu,0,not balanced,not balanced,0.9,1.06,orthorhombic,-1.942,0.076,0,12.944,2.185,5.884,6.038,7.287,90,90,90,-6.161,0.7851851851999999,0.6601619326,9.394,5.67,1.65,1.4031774997711182,0.6601619326
744,4158,SnYbO3,Sn,Yb,0,3,3,0.81,0.87,orthorhombic,-2.424,0.262,,13.313,0.788,5.62,5.644,8.395,90,90,90,-5.343,0.6444444443999999,0.6879957871,7.343999999999999,6.254,1.96,1.4031774997711182,0.6879957871
745,4711,TlNpO3,Tl,Np,0,element not in BV,element not in BV,1.7,0.86,rhombohedral,-2.466,0.105,0.4,16.26,1.113,6.14,6.14,6.14,59.7,59.7,59.7,1.24,0.637037037,0.9758713495999999,6.108,6.19,1.62,1.36,0.9758713495999999
746,1819,HgVO3,Hg,V,0,2,4,1.14,0.58,orthorhombic,-1.579,0.147,0.201,11.274,0.65,5.372,5.384,7.796,90,90,90,1.811,0.4296296296,0.9122776606999999,10.437000000000001,6.74,2,1.63,0.9122776606999999
747,822,CeFeO3,Ce,Fe,1,3,3,1.34,0.65,orthorhombic,-2.669,-0.084,1,12.214,1.144,5.518,5.642,7.847,90,90,90,4.094,0.4814814815,0.9510586206999999,5.54,7.87,1.12,1.83,0.9510586206999999
748,3801,SbBO3,Sb,B,0,3,3,0.76,0.27,cubic,-1.1,1.001,,8.51,1.554,3.491,3.491,3.491,90,90,90,3.328,0.2,0.9209847581999999,8.641,8.298,2.05,2.04,0.9209847581999999
749,2327,LuTlO3,Lu,Tl,0,3,3,1.03,0.89,orthorhombic,-2.3,0.149,0,13.621,1.053,5.447,5.792,8.636,90,90,90,0.315,0.6592592593,0.751300955,5.4259,6.108,1.27,1.62,0.751300955
750,3729,RuBaO3,Ru,Ba,0,not balanced,not balanced,0.62,1.35,rhombohedral,-1.763,0.261,0.4,18.194,0.747,6.197,6.197,6.197,63.7,63.7,63.7,-12.327,1.0,0.5159260589,7.37,5.212000000000001,2.2,0.89,0.5159260589
751,4324,TbErO3,Tb,Er,0,not balanced,not balanced,1.1,0.89,cubic,-2.902,0.827,0,14.97,1.887,4.214,4.214,4.214,90,90,90,4.277,0.6592592593,0.7733980418999999,5.86,6.101,1.4698021411895752,1.24,0.7733980418999999
752,2892,NpPrO3,Np,Pr,0,element not in BV,element not in BV,0.98,0.92,cubic,-2.657,0.871,0.8,18.305,0.597,4.507,4.507,4.507,90,90,90,,0.6814814815000001,0.7257968283,6.19,5.46,1.36,1.13,0.7257968283
753,3072,PbBaO3,Pb,Ba,0,not balanced,not balanced,1.49,1.35,orthorhombic,-1.723,0.224,,19.236,0.367,6.153,6.322,9.889,90,90,90,-1.982,1.0,0.7437715772,7.416,5.212000000000001,2.33,0.89,0.7437715772
754,4853,UNaO3,U,Na,0,not balanced,not balanced,1.17,1.02,orthorhombic,-2.87,0.238,0.2,13.162,2.597,5.483,5.74,8.365,90,90,90,-4.483,0.7555555556,0.7518603748999999,6.05,5.138999999999999,1.38,0.93,0.7518603748999999
755,201,AlSmO3,Al,Sm,0,3,3,0.54,0.96,orthorhombic,-3.267,0.27,0,12.728,3.072,5.45,5.462,8.551,90,90,90,-6.818,0.7111111111,0.5785419118999999,5.986000000000001,5.64,1.61,1.17,0.5785419118999999
756,1185,DyErO3,Dy,Er,0,not balanced,not balanced,1.08,0.89,cubic,-3.004,0.869,0,14.941,1.781,4.212,4.212,4.212,90,90,90,1.611,0.6592592593,0.7670845884999999,5.94,6.101,1.22,1.24,0.7670845884999999
757,1839,HoCsO3,Ho,Cs,0,not balanced,not balanced,1.12,1.67,orthorhombic,-1.949,0.552,0,18.203,0.352,5.111,6.032,11.81,90,90,90,,1.2370370370000001,0.5783290561,6.018,3.8939999999999997,1.23,0.79,0.5783290561
758,2803,NiLaO3,Ni,La,0,not balanced,not balanced,0.59,1.03,orthorhombic,-2.114,0.262,0.6,13.915,0.54,5.573,5.896,8.469,90,90,90,,0.762962963,0.5763811578,7.635,5.58,1.91,1.1,0.5763811578
759,610,BiInO3,Bi,In,1,3,3,1.38,0.8,orthorhombic,-1.621,0.038,,13.878,2.645,5.644,6.039,8.144,90,90,90,0.639,0.5925925926,0.8978611687000001,7.289,5.7860000000000005,2.02,1.78,0.8978611687000001
760,3863,SbVO3,Sb,V,0,3,3,0.76,0.64,orthorhombic,-1.993,0.112,0.4,11.801,0.606,5.306,5.791,7.681,90,90,90,3.131,0.47407407409999996,0.7497463861,8.641,6.74,2.05,1.63,0.7497463861
761,4495,TePbO3,Te,Pb,0,2,4,0.97,0.78,orthorhombic,-1.353,0.022,,16.626,1.71,6.24,6.604,8.069,90,90,90,0.913,0.5777777778000001,0.7701820340000001,9.009,7.416,2.1,2.33,0.7701820340000001
762,4961,VYbO3,V,Yb,0,not balanced,not balanced,0.72,0.95,orthorhombic,-2.858,0.22,0.2,12.678,1.333,5.393,5.432,8.656,90,90,90,-7.759,0.7037037037,0.6363961031,6.74,6.254,1.63,1.4031774997711182,0.6363961031
763,1174,DyBaO3,Dy,Ba,0,not balanced,not balanced,1.08,1.35,orthorhombic,-2.831,0.269,0.201,18.45,0.638,6.509,6.787,8.353,90,90,90,-7.677,1.0,0.6363961031,5.94,5.212000000000001,1.22,0.89,0.6363961031
764,4605,TiBaO3,Ti,Ba,0,not balanced,not balanced,0.74,1.35,orthorhombic,-3.152,0.135,0,17.499,2.986,5.85,5.95,10.054,90,90,90,-13.843,1.0,0.5473530269,6.82,5.212000000000001,1.54,0.89,0.5473530269
765,4928,VNdO3,V,Nd,0,not balanced,not balanced,0.72,0.98,orthorhombic,-2.912,0.284,0.4,13.858,1.358,5.687,5.808,8.392,90,90,90,-5.876,0.7259259259,0.6282021618,6.74,5.53,1.63,1.14,0.6282021618
766,2585,NaLiO3,Na,Li,0,not balanced,not balanced,1.39,0.76,orthorhombic,-1.182,0.093,,9.69,1.762,5.68,5.764,5.919,90,90,90,-3.867,0.5629629629999999,0.9182334504999999,5.138999999999999,5.392,0.93,0.98,0.9182334504999999
767,4262,TaKO3,Ta,K,0,not balanced,not balanced,0.74,1.38,orthorhombic,-2.684,0.236,0,17.643,3.635,5.769,5.851,10.454,90,90,90,-21.785,1.0222222222,0.5413381585,7.89,4.341,1.5,0.82,0.5413381585
768,771,CdPaO3,Cd,Pa,0,element not in BV,element not in BV,1.31,0.91,rhombohedral,-2.367,-0.013,0.2,15.768,0.51,6.159,6.159,6.159,58,58,58,4.126,0.6740740741,0.8322584239,8.993,5.89,1.69,1.5,0.8322584239
769,4892,VAgO3,V,Ag,0,not balanced,not balanced,0.72,0.95,orthorhombic,-1.633,0.074,0,13.017,1.337,5.179,5.572,9.022,90,90,90,-6.146,0.7037037037,0.6363961031,6.74,7.5760000000000005,1.63,1.93,0.6363961031
770,423,BTaO3,B,Ta,0,1,5,0.27,0.64,cubic,-1.443,1.307,0,12.282,2.039,3.945,3.945,3.945,90,90,90,5.114,0.47407407409999996,0.5756346661,8.298,7.89,2.04,1.5,0.5756346661
771,4674,TlAlO3,Tl,Al,0,3,3,0.98,0.54,orthorhombic,-2.028,0.073,,10.447,1.01,5.208,5.326,7.533,90,90,90,-0.122,0.4,0.8717242329000001,6.108,5.986000000000001,1.62,1.61,0.8717242329000001
772,3265,PmScO3,Pm,Sc,0,element not in BV,element not in BV,1.14,0.75,orthorhombic,-3.754,-0.012,0,12.764,4.694,5.531,5.788,7.973,90,90,90,5.29,0.5555555556,0.838426612,5.553999999999999,6.54,1.4698021411895752,1.36,0.838426612
773,5062,YHoO3,Y,Ho,0,3,3,1.08,0.9,cubic,-2.963,0.878,0,15.248,1.662,4.24,4.24,4.24,90,90,90,1.406,0.6666666667,0.7636753237,6.38,6.018,1.22,1.23,0.7636753237
774,2637,NbCaO3,Nb,Ca,0,not balanced,not balanced,0.77,1.0,rhombohedral,-2.685,0.346,0.2,14.88,0.593,6.078,6.078,6.078,57.3,57.3,57.3,,0.7407407407,0.6379005856000001,6.88,6.1129999999999995,1.6,1,0.6379005856000001
775,1310,ErYO3,Er,Y,0,3,3,1.06,0.9,cubic,-2.821,1.031,0,15.395,1.447,4.254,4.254,4.254,90,90,90,0.436,0.6666666667,0.7573899301000001,6.101,6.38,1.24,1.22,0.7573899301000001
776,4145,SnSrO3,Sn,Sr,0,not balanced,not balanced,0.81,1.18,orthorhombic,-2.223,0.273,,16.198,1.174,5.743,5.798,9.73,90,90,90,-6.916,0.8740740740999999,0.603695908,7.343999999999999,5.695,1.96,0.95,0.603695908
777,52,AcSbO3,Ac,Sb,0,element not in BV,element not in BV,1.12,0.68,orthorhombic,-2.465,0.114,0,16.31,0.296,5.98,6.327,8.621,90,90,90,2.835,0.5037037037,0.8603713051999999,5.17,8.641,1.1,2.05,0.8603713051999999
778,333,AuPaO3,Au,Pa,0,element not in BV,element not in BV,0.93,0.91,rhombohedral,-2.093,-0.14,0,15.048,1.537,6.121,6.121,6.121,56.9,56.9,56.9,2.677,0.6740740741,0.7133643633,9.225,5.89,2.54,1.5,0.7133643633
779,187,AlPaO3,Al,Pa,0,element not in BV,element not in BV,0.54,0.91,cubic,-2.259,0.768,0,16.861,2.193,4.385,4.385,4.385,90,90,90,5.433,0.6740740741,0.5913415117,5.986000000000001,5.89,1.61,1.5,0.5913415117
780,2756,NdSmO3,Nd,Sm,0,3,3,1.27,0.96,cubic,-2.834,0.827,0,17.064,1.318,4.402,4.402,4.402,90,90,90,0.939,0.7111111111,0.801999899,5.53,5.64,1.14,1.17,0.801999899
781,1253,ErCoO3,Er,Co,0,3,3,1.06,0.61,orthorhombic,-2.551,0.024,0,10.601,1.392,5.144,5.549,7.428,90,90,90,2.225,0.4518518519,0.8694527258,6.101,7.86,1.24,1.88,0.8694527258
782,840,CeNdO3,Ce,Nd,0,3,3,1.34,0.98,cubic,-2.776,0.795,0,17.971,1.055,4.479,4.479,4.479,90,90,90,3.435,0.7259259259,0.8163593311,5.54,5.53,1.12,1.14,0.8163593311
783,4204,SrPdO3,Sr,Pd,0,2,4,1.44,0.62,orthorhombic,-1.636,-0.058,,12.586,0.299,5.588,5.683,7.927,90,90,90,0.177,0.4592592593,1.0014354921,5.695,8.34,0.95,2.2,1.0014354921
784,5053,YDyO3,Y,Dy,0,3,3,1.08,0.91,cubic,-2.911,0.918,0,15.491,1.445,4.263,4.263,4.263,90,90,90,1.026,0.6740740741,0.7602962293000001,6.38,5.94,1.22,1.22,0.7602962293000001
785,4326,TbFeO3,Tb,Fe,1,3,3,1.1,0.65,orthorhombic,-2.644,-0.039,1,11.338,1.168,5.301,5.607,7.629,90,90,90,3.264,0.4814814815,0.866205807,5.86,7.87,1.4698021411895752,1.83,0.866205807
786,2717,NdDyO3,Nd,Dy,0,3,3,1.27,0.91,cubic,-3.089,0.646,0,15.73,1.704,4.285,4.285,4.285,90,90,90,4.401,0.6740740741,0.8197432595999999,5.53,5.94,1.14,1.22,0.8197432595999999
787,3882,ScCrO3,Sc,Cr,0,1,5,0.87,0.49,cubic,-2.486,0.658,0.6,10.702,0.436,3.768,3.768,3.768,90,90,90,2.781,0.36296296299999997,0.8531397034,6.54,6.766,1.36,1.66,0.8531397034
788,1566,GdMnO3,Gd,Mn,1,3,3,1.11,0.65,orthorhombic,-2.944,0.002,0.8,11.491,0.23,5.319,5.74,7.527,90,90,90,3.6,0.4814814815,0.8697413409,6.15,7.435,1.2,1.55,0.8697413409
789,350,AuTaO3,Au,Ta,0,element not in BV,element not in BV,0.93,0.68,rhombohedral,-1.935,0.303,0,12.233,1.182,5.669,5.669,5.669,57.8,57.8,57.8,3.741,0.5037037037,0.7941888971,9.225,7.89,2.54,1.5,0.7941888971
790,1985,IrCsO3,Ir,Cs,0,not balanced,not balanced,0.63,1.67,rhombohedral,-1.181,0.08,0.4,23.465,0.949,6.774,6.774,6.774,63.1,63.1,63.1,,1.2370370370000001,0.4635998102,9.1,3.8939999999999997,2.2,0.79,0.4635998102
791,2110,KUO3,K,U,1,not balanced,not balanced,1.64,0.85,orthorhombic,-3.14,-0.065,0.2,16.302,3.197,6.12,6.144,8.671,90,90,90,-11.265,0.6296296296,0.9610223981,4.341,6.05,0.82,1.38,0.9610223981
792,1825,HoAcO3,Ho,Ac,0,element not in BV,element not in BV,1.12,1.12,orthorhombic,-3.535,0.196,0,17.119,3.62,6.113,6.255,8.953,90,90,90,0.642,0.8296296296,0.7071067812,6.018,5.17,1.23,1.1,0.7071067812
793,994,CrPrO3,Cr,Pr,0,2,4,0.8,0.85,rhombohedral,-2.737,0.367,0.6,15.218,1.798,6.182,6.182,6.182,56.1,56.1,56.1,-5.186,0.6296296296,0.6910361725,6.766,5.46,1.66,1.13,0.6910361725
794,2170,LaScO3,La,Sc,1,3,3,1.36,0.75,orthorhombic,-3.789,-0.029,0,13.241,4.099,5.653,5.799,8.078,90,90,90,5.579,0.5555555556,0.9125044652,5.58,6.54,1.1,1.36,0.9125044652
795,3765,RuPbO3,Ru,Pb,0,2,4,0.68,0.78,rhombohedral,-0.941,0.347,0.4,15.822,0.216,5.873,5.873,5.873,64.8,64.8,64.8,,0.5777777778000001,0.6739092797,7.37,7.416,2.2,2.33,0.6739092797
796,1004,CrSmO3,Cr,Sm,0,not balanced,not balanced,0.57,0.96,rhombohedral,-2.799,0.352,0.6,14.555,1.635,6.143,6.143,6.143,55.2,55.2,55.2,-5.258,0.7111111111,0.5877251168,6.766,5.64,1.66,1.17,0.5877251168
797,2999,PaBaO3,Pa,Ba,0,element not in BV,element not in BV,0.95,1.35,orthorhombic,-2.812,0.341,0.2,18.815,1.344,6.694,6.734,8.348,90,90,90,,1.0,0.602350221,5.89,5.212000000000001,1.5,0.89,0.602350221
798,3484,PuScO3,Pu,Sc,0,element not in BV,element not in BV,0.96,0.75,orthorhombic,-3.744,-0.024,1,12.922,3.067,5.597,5.801,7.96,90,90,90,,0.5555555556,0.7778174593000001,6.06,6.54,1.28,1.36,0.7778174593000001
799,2257,LiVO3,Li,V,0,1,5,0.92,0.54,tetragonal,-2.299,0.074,0,11.23,0.815,3.608,3.608,4.312,90,90,90,2.005,0.4,0.8492763986,5.392,6.74,0.98,1.63,0.8492763986
800,4875,USrO3,U,Sr,0,4,2,1.17,1.18,orthorhombic,-3.326,0.161,0.4,16.725,1.939,5.809,5.967,9.651,90,90,90,-7.732,0.8740740740999999,0.7043118926999999,6.05,5.695,1.38,0.95,0.7043118926999999
801,1535,GdAlO3,Gd,Al,1,3,3,1.11,0.54,orthorhombic,-3.569,-0.041,0,10.339,5.604,5.221,5.333,7.428,90,90,90,6.35,0.4,0.9203612073,6.15,5.986000000000001,1.2,1.61,0.9203612073
802,4074,SmTbO3,Sm,Tb,0,2,4,1.32,0.76,cubic,-2.842,0.789,0,15.898,1.608,4.3,4.3,4.3,90,90,90,2.172,0.5629629629999999,0.8947749316,5.64,5.86,1.17,1.4031774997711182,0.8947749316
803,2488,MoBaO3,Mo,Ba,0,4,2,0.65,1.35,rhombohedral,-2.311,0.278,0,18.697,0.788,6.254,6.254,6.254,63.7,63.7,63.7,-14.618,1.0,0.5237828009000001,7.099,5.212000000000001,2.16,0.89,0.5237828009000001
804,4309,TbAlO3,Tb,Al,1,3,3,1.1,0.54,orthorhombic,-3.448,-0.02,0,10.267,5.845,5.198,5.336,7.404,90,90,90,6.336,0.4,0.9166199015000001,5.86,5.986000000000001,1.4698021411895752,1.61,0.9166199015000001